
         
 *******************************************************************************
 *                                                                             *
 *                                CRYSTAL09                                    *
 *                              public : 2.0                                   *
 *                      December 10th, 2012 - sequential executable            *
 *                                                                             *
 *                                                                             *
 *                                                                             *
 *                              MAIN AUTHORS                                   *
 *                                                                             *
 *    R. DOVESI(1,10), V.R. SAUNDERS(2), C. ROETTI(1,10), R. ORLANDO (1,3),    *
 *  C.M. ZICOVICH-WILSON(1,4), F. PASCALE(5), B. CIVALLERI(1,10), K. DOLL(6),  *
 *       N.M. HARRISON(2,7), I. J. BUSH(2), Ph. D'ARCO(8), M. LLUNELL(9)       *
 *                                                                             *
 * (1) THEORETICAL CHEMISTRY GROUP - UNIVERSITA' DI TORINO - TORINO (ITALY)    *
 *      http://www.crystal.unito.it                                            *
 * (2) COMPUTATIONAL SCIENCE & ENGINEERING DEPARTMENT - CCLRC DARESBURY (UK)   *
 *     http://www.cse.clrc.ac.uk/cmg/CRYSTAL/                                  *
 * (3) UNIVERSITA' DEL PIEMONTE ORIENTALE - ALESSANDRIA (ITALY)                *
 * (4) UNIVERSIDAD AUTONOMA DEL ESTADO DE MORELOS - CUERNAVACA (MEXICO)        *
 * (5) UNIVERSITE' HENRI POINCARE' - NANCY (FRANCE)                            *
 * (6) MPI FUER FESTKOERPERFORSCHUNG - STUTTGART (GERMANY)                     *
 * (7) IMPERIAL COLLEGE - LONDON (UK)                                          *
 * (8) UNIVERSITE' PIERRE ET MARIE CURIE - PARIS (FRANCE)                      *
 * (9) UNIVERSIDAD DE BARCELONA - BARCELONA (SPAIN)                            *
 *(10) NIS - NANOSTRUCTURED INTERFACES AND SURFACES - TORINO (ITALY)           *
 *     http://www.crystal.unito.it                                             *
 *******************************************************************************
 EEEEEEEEEE STARTING  DATE 11 05 2015 TIME 10:55:57.2

 *******************************************************************************
 Created with astools                                                            
 CRYSTAL - PROPERTIES - TYPE OF CALCULATION :  UNRESTRICTED OPEN SHELL
 *******************************************************************************
 SPIN POLARIZED SYSTEM: SUMMED SPIN DENSITY    0.00000000

 KOHN-SHAM HAMILTONIAN

 (EXCHANGE)[CORRELATION] FUNCTIONAL:(BECKE)[LEE-YANG-PARR]

 NON-LOCAL WEIGHTING FACTOR (EXCHANGE) =           0.9000
 NON-LOCAL WEIGHTING FACTOR [CORRELATION] =        0.8100

 HYBRID EXCHANGE - PERCENTAGE OF FOCK EXCHANGE     5.0000

 SPIN POLARIZED DFT SELECTED

 DIRECT LATTICE VECTOR COMPONENTS (ANGSTROM)
        11.09810    0.00000    0.00000
         0.00000   10.18390    0.00000
         0.00000    0.00000   21.68540

 LATTICE PARAMETERS  (ANGSTROM AND DEGREES) - PRIMITIVE CELL
       A          B          C         ALPHA      BETA     GAMMA        VOLUME
   11.09810   10.18390   21.68540     47.6259   47.6259   47.6259    2450.92599
 *******************************************************************************
 N. OF ATOMS PER CELL      148  COULOMB OVERLAP TOL         (T1) 10** -8
 NUMBER OF SHELLS          776  COULOMB PENETRATION TOL     (T2) 10** -8
 NUMBER OF AO             2752  EXCHANGE OVERLAP TOL        (T3) 10** -8
 N. OF ELECTRONS PER CELL 1736  EXCHANGE PSEUDO OVP (F(G))  (T4) 10** -8
 CORE ELECTRONS PER CELL  1032  EXCHANGE PSEUDO OVP (P(G))  (T5) 10**-16
 N. OF SYMMETRY OPERATORS    1  POLE ORDER IN MONO ZONE                4
 *******************************************************************************
   ATOM N.AT.  SHELL    X(A)      Y(A)      Z(A)      EXAD       N.ELECT.
 *******************************************************************************
    1    8 O     4    -4.813    -1.419    -7.728   1.900E-01       8.596
    2    8 O     4     3.682     2.790    -8.039   1.900E-01       8.590
    3    8 O     4    -3.543     2.230   -10.017   1.900E-01       8.598
    4    8 O     4     3.712    -4.790    -8.767   1.900E-01       8.646
    5    8 O     4    -3.786     0.828    -6.860   1.900E-01       8.623
    6    8 O     4    -2.345    -3.988    -9.444   1.900E-01       8.631
    7    8 O     4    -4.361    -4.990    -8.249   1.900E-01       8.789
    8    8 O     4     4.808    -0.670   -10.027   1.900E-01       8.536
    9    8 O     4     1.756     0.994   -10.354   1.900E-01       8.628
   10    8 O     4     1.054     2.273    -8.205   1.900E-01       8.659
   11    8 O     4    -3.684    -0.453    -9.880   1.900E-01       8.714
   12    8 O     4    -1.733     0.624    -8.766   1.900E-01       8.686
   13    8 O     4    -0.717    -4.891    -7.641   1.900E-01       8.673
   14    8 O     4     5.459     3.673    -9.898   1.900E-01       8.815
   15    8 O     4     3.079     3.321   -10.577   1.900E-01       8.683
   16    8 O     4     3.288    -1.962    -7.748   1.900E-01       8.701
   17    8 O     4    -4.933    -2.868    -9.716   1.900E-01       8.526
   18    8 O     4     2.032    -3.133    -9.829   1.900E-01       8.649
   19    8 O     4    -1.257    -2.044    -8.415   1.900E-01       8.776
   20    8 O     4     0.460     3.486    -1.198   1.900E-01       8.525
   21    8 O     4     2.186     3.418    -5.963   1.900E-01       8.645
   22    8 O     4     1.525     4.522    -3.367   1.900E-01       8.813
   23    8 O     4     5.197     1.878    -4.107   1.900E-01       8.640
   24    8 O     4    -4.333     1.366    -2.174   1.900E-01       8.669
   25    8 O     4    -2.778     4.658    -6.113   1.900E-01       8.550
   26    8 O     4    -0.883    -2.101    -1.166   1.900E-01       8.631
   27    8 O     4     5.024    -3.457    -3.247   1.900E-01       8.731
   28    8 O     4     1.687    -4.042    -5.358   1.900E-01       8.613
   29    8 O     4    -4.643    -3.739    -5.976   1.900E-01       8.562
   30    8 O     4     5.449    -0.800    -2.936   1.900E-01       8.589
   31    8 O     4    -1.422    -0.079    -6.362   1.900E-01       8.668
   32    8 O     4     0.453    -2.270    -6.564   1.900E-01       8.581
   33    8 O     4    -4.272    -1.256    -5.173   1.900E-01       8.558
   34    8 O     4    -2.185    -2.616    -5.875   1.900E-01       8.548
   35    8 O     4    -1.633     1.628    -1.443   1.900E-01       8.619
   36    8 O     4    -0.214     4.135    -5.423   1.900E-01       8.708
   37    8 O     4    -2.395     2.304    -3.823   1.900E-01       8.641
   38    8 O     4     4.088    -2.450    -1.052   1.900E-01       8.601
   39    8 O     4    -4.525    -4.265    -1.277   1.900E-01       8.628
   40    8 O     4     0.235     1.916    -3.275   1.900E-01       8.657
   41    8 O     4    -3.182     3.611    -1.420   1.900E-01       8.605
   42    8 O     4     3.827     0.930    -2.018   1.900E-01       8.676
   43    8 O     4     4.711    -0.113    -6.256   1.900E-01       8.637
   44    8 O     4    -5.346     3.872    -5.972   1.900E-01       8.556
   45    8 O     4     0.927     0.916    -0.931   1.900E-01       8.705
   46    8 O     4     2.552    -1.451    -5.228   1.900E-01       8.588
   47    8 O     4    -4.755     4.347    -3.448   1.900E-01       8.658
   48    8 O     4    -3.501    -3.427    -3.657   1.900E-01       8.489
   49    8 O     4    -1.096    -5.000    -2.737   1.900E-01       8.457
   50    8 O     4     3.863     4.122    -4.024   1.900E-01       8.710
   51    8 O     4     0.899    -4.124    -1.087   1.900E-01       8.795
   52    8 O     4     1.737    -1.529    -0.957   1.900E-01       8.843
   53    8 O     4     1.248    -2.765    -3.211   1.900E-01       8.719
   54    8 O     4    -0.210    -1.440    -4.496   1.900E-01       8.613
   55    8 O     4    -1.689     2.630    -7.182   1.900E-01       8.669
   56    8 O     4     2.448     0.678    -6.893   1.900E-01       8.756
   57   14 SI    6     0.604     0.303     0.649   6.000E-01      13.553
   58   14 SI    6     3.675     3.089     0.268   6.000E-01      13.837
   59   14 SI    6     2.339     4.254     1.805   6.000E-01      14.092
   60   14 SI    6     4.991     1.850     1.835   6.000E-01      14.178
   61   14 SI    6     0.835     3.079     3.191   6.000E-01      14.007
   62   14 SI    6     3.598     0.599     3.283   6.000E-01      13.991
   63   14 SI    6     2.136     1.828     4.707   6.000E-01      13.988
   64   14 SI    6     4.977     4.412     4.661   6.000E-01      13.987
   65   14 SI    6     1.408    -4.078     0.732   6.000E-01      13.675
   66   14 SI    6     3.054    -2.351     0.281   6.000E-01      13.474
   67   14 SI    6     2.288    -0.730     1.891   6.000E-01      14.054
   68   14 SI    6     4.930    -3.237     1.683   6.000E-01      13.984
   69   14 SI    6     0.815    -1.917     3.335   6.000E-01      14.016
   70   14 SI    6     3.604    -4.523     3.236   6.000E-01      14.040
   71   14 SI    6     2.157    -3.290     4.685   6.000E-01      13.985
   72   14 SI    6     4.987    -0.800     4.521   6.000E-01      13.994
   73   14 SI    6    -5.012     0.158     0.577   6.000E-01      13.824
   74   14 SI    6    -2.209     4.442    -0.351   6.000E-01      13.508
   75   14 SI    6    -3.359     4.373     1.801   6.000E-01      14.060
   76   14 SI    6    -0.652     1.872     1.852   6.000E-01      14.018
   77   14 SI    6    -4.753     3.136     3.237   6.000E-01      13.990
   78   14 SI    6    -1.921     0.492     3.223   6.000E-01      14.027
   79   14 SI    6    -3.346     1.772     4.572   6.000E-01      13.971
   80   14 SI    6    -0.539     4.351     4.595   6.000E-01      13.986
   81   14 SI    6    -4.219    -3.932     0.336   6.000E-01      13.722
   82   14 SI    6    -1.901    -2.370     0.242   6.000E-01      13.559
   83   14 SI    6    -3.127    -0.721     1.617   6.000E-01      14.097
   84   14 SI    6    -0.493    -3.249     1.900   6.000E-01      14.041
   85   14 SI    6    -4.708    -1.983     3.030   6.000E-01      14.080
   86   14 SI    6    -1.973    -4.547     3.231   6.000E-01      14.011
   87   14 SI    6    -3.375    -3.196     4.618   6.000E-01      13.956
   88   14 SI    6    -0.580    -0.674     4.763   6.000E-01      14.001
   89   14 SI    6     0.734     0.605     6.226   6.000E-01      14.001
   90   14 SI    6     3.526     3.172     6.019   6.000E-01      14.004
   91   14 SI    6     0.755    -4.549     6.105   6.000E-01      13.981
   92   14 SI    6     3.550    -1.962     6.005   6.000E-01      13.993
   93   14 SI    6    -4.778     0.460     5.905   6.000E-01      14.000
   94   14 SI    6    -1.891     3.018     5.930   6.000E-01      14.025
   95   14 SI    6    -4.764    -4.471     6.071   6.000E-01      13.983
   96   14 SI    6    -2.005    -1.947     6.105   6.000E-01      14.000
   97   14 SI    6     2.142     4.355     7.514   6.000E-01      14.018
   98   14 SI    6     4.919     1.765     7.220   6.000E-01      14.000
   99   14 SI    6     0.707     3.237     9.028   6.000E-01      14.087
  100   14 SI    6     3.564     0.708     8.792   6.000E-01      14.061
  101   14 SI    6     2.320     2.103    10.249   6.000E-01      13.260
  102   14 SI    6     5.494     4.386     9.663   6.000E-01      13.679
  103   14 SI    6     2.183    -0.734     7.517   6.000E-01      14.022
  104   14 SI    6     4.839    -3.240     7.477   6.000E-01      14.040
  105   14 SI    6     0.878    -2.152     8.832   6.000E-01      13.935
  106   14 SI    6     3.492    -4.561     8.966   6.000E-01      14.005
  107   14 SI    6     1.642    -3.768    10.349   6.000E-01      13.674
  108   14 SI    6     5.242    -0.220    10.064   6.000E-01      13.743
  109   14 SI    6    -3.235     4.335     7.266   6.000E-01      14.050
  110   14 SI    6    -0.685     1.912     7.662   6.000E-01      13.976
  111   14 SI    6    -4.464     2.735     8.430   6.000E-01      14.066
  112   14 SI    6    -2.647     1.099     8.761   6.000E-01      14.006
  113   14 SI    6    -3.807     0.872    10.735   6.000E-01      13.391
  114   14 SI    6    -0.197     4.860    10.528   6.000E-01      13.987
  115   14 SI    6    -3.455    -0.691     7.465   6.000E-01      14.018
  116   14 SI    6    -0.677    -3.267     7.503   6.000E-01      14.030
  117   14 SI    6    -4.828    -2.025     8.855   6.000E-01      13.937
  118   14 SI    6    -1.877    -4.735     8.885   6.000E-01      13.982
  119   14 SI    6    -3.982    -4.118     9.697   6.000E-01      14.053
  120   14 SI    6     0.930     0.721    -8.957   6.000E-01      13.195
  121   14 SI    6    -2.174     1.046    -7.258   6.000E-01      12.674
  122   14 SI    6     2.344     2.317    -7.194   6.000E-01      12.775
  123   14 SI    6    -3.919    -4.131    -9.652   6.000E-01      13.052
  124   14 SI    6     2.712    -3.448    -8.360   6.000E-01      12.855
  125   14 SI    6    -0.889    -3.687    -8.776   6.000E-01      12.966
  126   14 SI    6    -4.418     2.955    -8.820   6.000E-01      13.167
  127   14 SI    6    -4.973    -1.319    -9.314   6.000E-01      12.890
  128   14 SI    6    -1.274    -0.795    -9.592   6.000E-01      13.302
  129   14 SI    6     3.909     3.846    -9.271   6.000E-01      12.744
  130   14 SI    6     0.282     4.821    -2.150   6.000E-01      13.101
  131   14 SI    6    -4.799    -0.418    -6.462   6.000E-01      12.825
  132   14 SI    6     5.320     0.836    -2.787   6.000E-01      12.702
  133   14 SI    6     2.495    -0.058    -2.428   6.000E-01      13.174
  134   14 SI    6     4.360    -2.043    -2.630   6.000E-01      13.073
  135   14 SI    6    -3.620    -2.755    -5.147   6.000E-01      12.907
  136   14 SI    6     1.345     4.591    -5.128   6.000E-01      12.608
  137   14 SI    6    -2.940     2.250    -2.279   6.000E-01      12.742
  138   14 SI    6    -0.058     2.001    -1.677   6.000E-01      12.957
  139   14 SI    6    -1.330     4.157    -6.643   6.000E-01      12.640
  140   14 SI    6    -0.887     1.862    -4.521   6.000E-01      13.240
  141   14 SI    6     5.323     3.495    -4.424   6.000E-01      12.746
  142   14 SI    6     3.254     4.773    -2.628   6.000E-01      13.122
  143   14 SI    6     3.226    -0.774    -6.559   6.000E-01      12.652
  144   14 SI    6     1.170    -2.398    -4.946   6.000E-01      12.810
  145   14 SI    6    -0.920    -1.573    -5.980   6.000E-01      12.939
  146   14 SI    6    -4.289     4.990    -6.591   6.000E-01      12.852
  147   14 SI    6     0.625    -2.498    -1.731   6.000E-01      12.650
  148   14 SI    6    -4.661    -4.284    -2.894   6.000E-01      12.762
 *******************************************************************************
 DE(K)                   0.000E+00  ENERGY LEVEL SHIFTING        0.00000
 TOTAL ENERGY -3.0844502126407E+04  CONVERGENCE ON ENER       -8.302E-08
 KIN. ENERGY   3.0738076438733E+04  VIR. COEFF.           1.03678816E+00
 N. OF SCF CYCLES              109  FERMI ENERGY              -0.992E-01
 WEIGHT OF F(I) IN F(I+1)      95
 SHRINK. FACT.(MONKH.)     2  2  2  SHRINKING FACTOR(GILAT NET)        2
 NUMBER OF K POINTS IN THE IBZ   8  CELL VOLUME (A.U.)       16539.66865
 *******************************************************************************

 GCALCO - MAX INDICES DIRECT LATTICE VECTOR    18    19     9
 NO.OF VECTORS CREATED 6999 STARS 1063 RMAX   301.56757 BOHR

 DIMENSIONS  P(G)= 6411836 F(G)= 1143363 P(G),F(G) (IRR) 3215270
 MAX G-VECTOR INDEX FOR 1- AND 2-ELECTRON INTEGRALS  55


 CAPPA:IS1  2;IS2  2;IS3  2; K PTS MONK NET    8; SYMMOPS: K SPACE  2;G SPACE  1


 CAPPA:IS1  6;IS2  6;IS3  3; K PTS MONK NET   56; SYMMOPS: K SPACE  2;G SPACE  1

 *******************************************************************************
 RESTART WITH NEW K POINTS NET
 *******************************************************************************
 POINTS IN THE IBZ                  56 POINTS(GILAT NET)                56
 SHRINK FACTORS(MONK.)         6  6  3 SHRINK FACTOR(GILAT)              6
 *******************************************************************************
 *** K POINTS COORDINATES (OBLIQUE COORDINATES IN UNITS OF IS =  6)
   1-R(  0  0  0)   2-C(  1  0  0)   3-C(  2  0  0)   4-R(  3  0  0)
   5-C(  0  1  0)   6-C(  1  1  0)   7-C(  2  1  0)   8-C(  3  1  0)
   9-C(  4  1  0)  10-C(  5  1  0)  11-C(  0  2  0)  12-C(  1  2  0)
  13-C(  2  2  0)  14-C(  3  2  0)  15-C(  4  2  0)  16-C(  5  2  0)
  17-R(  0  3  0)  18-C(  1  3  0)  19-C(  2  3  0)  20-R(  3  3  0)
  21-C(  0  0  1)  22-C(  1  0  1)  23-C(  2  0  1)  24-C(  3  0  1)
  25-C(  4  0  1)  26-C(  5  0  1)  27-C(  0  1  1)  28-C(  1  1  1)
  29-C(  2  1  1)  30-C(  3  1  1)  31-C(  4  1  1)  32-C(  5  1  1)
  33-C(  0  2  1)  34-C(  1  2  1)  35-C(  2  2  1)  36-C(  3  2  1)
  37-C(  4  2  1)  38-C(  5  2  1)  39-C(  0  3  1)  40-C(  1  3  1)
  41-C(  2  3  1)  42-C(  3  3  1)  43-C(  4  3  1)  44-C(  5  3  1)
  45-C(  0  4  1)  46-C(  1  4  1)  47-C(  2  4  1)  48-C(  3  4  1)
  49-C(  4  4  1)  50-C(  5  4  1)  51-C(  0  5  1)  52-C(  1  5  1)
  53-C(  2  5  1)  54-C(  3  5  1)  55-C(  4  5  1)  56-C(  5  5  1)

 FERMI ENERGY AND DENSITY MATRIX CALCULATION ON COMPUTED EIGENVECTORS
 DENSITY MATRIX AT SCF CYCLE (109+1)

 POSSIBLY CONDUCTING STATE - EFERMI(AU) -9.9232008E-02 (RES. CHARGE  0.00E+00;IT.  5)

 CORE DENSITY MATRIX CALCULATION
 TTTTTTTTTTTTTTTTTTTTTTTTTTTTTT NEWK        TELAPSE   111120.63 TCPU   110948.48
 TTTTTTTTTTTTTTTTTTTTTTTTTTTTTT SETPRINT    TELAPSE   111120.63 TCPU   110948.48

 *******************************************************************************
 HYPERFINE ELECTRON-NUCLEAR SPIN INTERACTION TENSOR
 ANISOTROPIC COMPONENTS - THE TENSOR IS TRACELESS
 *******************************************************************************


 POINT   ATOM  MASS NO  NUCLEAR G FACTOR
    1    1 O      17      -0.7575220

 TENSOR IN ORIGINAL CARTESIAN AXES
 XX -2.457245E-03 YY  2.002165E-04 ZZ  2.257028E-03 XY -2.072146E-03 XZ -9.192673E-04 YZ  9.417510E-05

 TENSOR IN PRINCIPAL AXIS SYSTEM
 AA -3.688499E-03 BB  1.116167E-03 CC  2.572331E-03

 PRINCIPAL AXES
         X             Y             Z
 A  8.765313E-01  4.639653E-01  1.281759E-01
 B -3.881063E-01  8.387377E-01 -3.819588E-01
 C -2.847216E-01  2.850529E-01  9.152478E-01

 ANGLES BETWEEN PRINCIPAL AXES AND ORIGINAL AXES (DEGREES)
         X             Y             Z
 A     28.773273     62.356721     82.635804
 B    112.836719     32.992932    112.455065
 C    106.542206     73.437987     23.759064


 POINT   ATOM  MASS NO  NUCLEAR G FACTOR
    2    2 O      17      -0.7575220

 TENSOR IN ORIGINAL CARTESIAN AXES
 XX  1.693186E-03 YY -3.346848E-03 ZZ  1.653662E-03 XY  4.592785E-04 XZ  2.287086E-04 YZ -3.203007E-05

 TENSOR IN PRINCIPAL AXIS SYSTEM
 AA  1.922910E-03 BB -3.388906E-03 CC  1.465996E-03

 PRINCIPAL AXES
         X             Y             Z
 A  7.643203E-01  6.271208E-02  6.417801E-01
 B -9.046546E-02  9.958450E-01  1.042893E-02
 C -6.384595E-01 -6.602997E-02  7.668178E-01

 ANGLES BETWEEN PRINCIPAL AXES AND ORIGINAL AXES (DEGREES)
         X             Y             Z
 A     40.153440     86.404503     50.075315
 B     95.190385      5.224856     89.402456
 C    129.677041     93.785993     39.931015


 POINT   ATOM  MASS NO  NUCLEAR G FACTOR
    3    3 O      17      -0.7575220

 TENSOR IN ORIGINAL CARTESIAN AXES
 XX -8.782861E-04 YY  3.059969E-04 ZZ  5.722892E-04 XY  1.895800E-03 XZ -1.145346E-03 YZ  1.300189E-03

 TENSOR IN PRINCIPAL AXIS SYSTEM
 AA -3.066228E-03 BB  1.909044E-03 CC  1.157184E-03

 PRINCIPAL AXES
         X             Y             Z
 A  7.095622E-01 -5.625220E-01  4.243706E-01
 B  3.477592E-01  8.033522E-01  4.834136E-01
 C -6.128498E-01 -1.954332E-01  7.656507E-01

 ANGLES BETWEEN PRINCIPAL AXES AND ORIGINAL AXES (DEGREES)
         X             Y             Z
 A     44.800690    124.230393     64.889170
 B     69.649678     36.548579     61.091414
 C    127.795851    101.270033     40.035088


 POINT   ATOM  MASS NO  NUCLEAR G FACTOR
    4    4 O      17      -0.7575220

 TENSOR IN ORIGINAL CARTESIAN AXES
 XX -1.178171E-01 YY  1.258757E-01 ZZ -8.058626E-03 XY  1.053545E-01 XZ  2.296255E-01 YZ -7.884077E-02

 TENSOR IN PRINCIPAL AXIS SYSTEM
 AA -3.364595E-01 BB  1.623291E-01 CC  1.741305E-01

 PRINCIPAL AXES
         X             Y             Z
 A  7.561524E-01 -2.736731E-01 -5.944213E-01
 B  2.816936E-02  9.211221E-01 -3.882533E-01
 C  6.537890E-01  2.768342E-01  7.042178E-01

 ANGLES BETWEEN PRINCIPAL AXES AND ORIGINAL AXES (DEGREES)
         X             Y             Z
 A     40.873836    105.882954    126.471386
 B     88.385801     22.909322    112.845856
 C     49.172110     73.928652     45.233610


 POINT   ATOM  MASS NO  NUCLEAR G FACTOR
    5    5 O      17      -0.7575220

 TENSOR IN ORIGINAL CARTESIAN AXES
 XX -5.043877E-04 YY -1.039110E-04 ZZ  6.082987E-04 XY -1.806317E-04 XZ -2.359500E-04 YZ -6.819435E-05

 TENSOR IN PRINCIPAL AXIS SYSTEM
 AA -6.225040E-04 BB -3.506176E-05 CC  6.575657E-04

 PRINCIPAL AXES
         X             Y             Z
 A  9.179526E-01  3.453900E-01  1.951121E-01
 B -3.468355E-01  9.375131E-01 -2.782564E-02
 C -1.925309E-01 -4.212921E-02  9.803861E-01

 ANGLES BETWEEN PRINCIPAL AXES AND ORIGINAL AXES (DEGREES)
         X             Y             Z
 A     23.371423     69.794393     78.748725
 B    110.293884     20.361975     91.594497
 C    101.100521     92.414541     11.366626


 POINT   ATOM  MASS NO  NUCLEAR G FACTOR
    6    6 O      17      -0.7575220

 TENSOR IN ORIGINAL CARTESIAN AXES
 XX  5.239925E-02 YY -1.950112E-02 ZZ -3.289813E-02 XY  3.611643E-02 XZ -1.270606E-02 YZ -8.304202E-03

 TENSOR IN PRINCIPAL AXIS SYSTEM
 AA  6.958177E-02 BB -3.201346E-02 CC -3.756830E-02

 PRINCIPAL AXES
         X             Y             Z
 A  9.122987E-01  3.833083E-01 -1.441726E-01
 B -3.765748E-01  6.468364E-01 -6.631697E-01
 C -1.609424E-01  6.593007E-01  7.344523E-01

 ANGLES BETWEEN PRINCIPAL AXES AND ORIGINAL AXES (DEGREES)
         X             Y             Z
 A     24.175021     67.461241     98.289368
 B    112.121676     49.696495    131.542064
 C     99.261600     48.753441     42.739043


 POINT   ATOM  MASS NO  NUCLEAR G FACTOR
    7    7 O      17      -0.7575220

 TENSOR IN ORIGINAL CARTESIAN AXES
 XX  4.339446E-04 YY -6.716053E-04 ZZ  2.376607E-04 XY  4.043527E-03 XZ -9.897092E-04 YZ  1.968093E-04

 TENSOR IN PRINCIPAL AXIS SYSTEM
 AA  4.063634E-03 BB -4.340810E-03 CC  2.771754E-04

 PRINCIPAL AXES
         X             Y             Z
 A  7.537133E-01  6.368704E-01 -1.622109E-01
 B -6.571493E-01  7.335009E-01 -1.735835E-01
 C  8.431662E-03  2.374290E-01  9.713683E-01

 ANGLES BETWEEN PRINCIPAL AXES AND ORIGINAL AXES (DEGREES)
         X             Y             Z
 A     41.086933     50.441153     99.335248
 B    131.082822     42.819303     99.996236
 C     89.516896     76.265156     13.743672


 POINT   ATOM  MASS NO  NUCLEAR G FACTOR
    8    8 O      17      -0.7575220

 TENSOR IN ORIGINAL CARTESIAN AXES
 XX -2.806939E-03 YY  9.678479E-04 ZZ  1.839091E-03 XY -3.678369E-03 XZ  1.939210E-03 YZ  1.358764E-03

 TENSOR IN PRINCIPAL AXIS SYSTEM
 AA -5.786471E-03 BB  3.244933E-03 CC  2.541537E-03

 PRINCIPAL AXES
         X             Y             Z
 A  8.125532E-01  5.020786E-01 -2.960985E-01
 B -4.618377E-01  8.644744E-01  1.984691E-01
 C  3.556167E-01 -2.451728E-02  9.343103E-01

 ANGLES BETWEEN PRINCIPAL AXES AND ORIGINAL AXES (DEGREES)
         X             Y             Z
 A     35.653856     59.862385    107.223421
 B    117.505752     30.177258     78.552548
 C     69.168755     91.404878     20.883002


 POINT   ATOM  MASS NO  NUCLEAR G FACTOR
    9    9 O      17      -0.7575220

 TENSOR IN ORIGINAL CARTESIAN AXES
 XX  4.556050E-03 YY -9.025750E-03 ZZ  4.469699E-03 XY  4.789068E-04 XZ -5.580551E-04 YZ -3.731222E-03

 TENSOR IN PRINCIPAL AXIS SYSTEM
 AA  4.207789E-03 BB -9.995894E-03 CC  5.788105E-03

 PRINCIPAL AXES
         X             Y             Z
 A  8.801397E-01 -9.904947E-02  4.642665E-01
 B -2.232119E-02  9.682737E-01  2.488932E-01
 C -4.741898E-01 -2.294237E-01  8.500052E-01

 ANGLES BETWEEN PRINCIPAL AXES AND ORIGINAL AXES (DEGREES)
         X             Y             Z
 A     28.340784     95.684437     62.337239
 B     91.279016     14.471126     75.587974
 C    118.306609    103.263147     31.787767


 POINT   ATOM  MASS NO  NUCLEAR G FACTOR
   10   10 O      17      -0.7575220

 TENSOR IN ORIGINAL CARTESIAN AXES
 XX  1.370738E-03 YY -4.114964E-03 ZZ  2.744225E-03 XY -8.059410E-04 XZ  8.232890E-04 YZ -3.307005E-03

 TENSOR IN PRINCIPAL AXIS SYSTEM
 AA  1.028617E-03 BB -5.478319E-03 CC  4.449702E-03

 PRINCIPAL AXES
         X             Y             Z
 A  9.421726E-01  6.388721E-02 -3.289822E-01
 B  6.512262E-02  9.280461E-01  3.667281E-01
 C  3.287399E-01 -3.669453E-01  8.702191E-01

 ANGLES BETWEEN PRINCIPAL AXES AND ORIGINAL AXES (DEGREES)
         X             Y             Z
 A     19.580330     86.337038    109.207011
 B     86.266106     21.867744     68.486028
 C     70.807691    111.527351     29.515894


 POINT   ATOM  MASS NO  NUCLEAR G FACTOR
   11   11 O      17      -0.7575220

 TENSOR IN ORIGINAL CARTESIAN AXES
 XX -6.817397E-03 YY  2.378318E-03 ZZ  4.439079E-03 XY  2.032434E-03 XZ  3.642753E-03 YZ -1.417974E-03

 TENSOR IN PRINCIPAL AXIS SYSTEM
 AA -8.407870E-03 BB  2.683659E-03 CC  5.724211E-03

 PRINCIPAL AXES
         X             Y             Z
 A  9.333861E-01 -2.137721E-01 -2.882566E-01
 B  2.747976E-01  9.423492E-01  1.909561E-01
 C  2.308173E-01 -2.574480E-01  9.383197E-01

 ANGLES BETWEEN PRINCIPAL AXES AND ORIGINAL AXES (DEGREES)
         X             Y             Z
 A     21.031046    102.343497    106.753611
 B     74.050046     19.550106     78.991415
 C     76.654804    104.918689     20.228737


 POINT   ATOM  MASS NO  NUCLEAR G FACTOR
   12   12 O      17      -0.7575220

 TENSOR IN ORIGINAL CARTESIAN AXES
 XX  1.389669E-03 YY  1.153058E-03 ZZ -2.542727E-03 XY  3.779077E-03 XZ  4.164855E-05 YZ -1.964520E-02

 TENSOR IN PRINCIPAL AXIS SYSTEM
 AA  1.264662E-03 BB  1.946445E-02 CC -2.072911E-02

 PRINCIPAL AXES
         X             Y             Z
 A  9.813732E-01 -3.454511E-02  1.889795E-01
 B  1.526607E-01  7.374054E-01 -6.579726E-01
 C -1.166248E-01  6.745664E-01  7.289436E-01

 ANGLES BETWEEN PRINCIPAL AXES AND ORIGINAL AXES (DEGREES)
         X             Y             Z
 A     11.076002     91.979683     79.106766
 B     81.218853     42.489134    131.145434
 C     96.697348     47.579512     43.202092


 POINT   ATOM  MASS NO  NUCLEAR G FACTOR
   13   13 O      17      -0.7575220

 TENSOR IN ORIGINAL CARTESIAN AXES
 XX -3.832021E-02 YY  1.778926E-03 ZZ  3.654129E-02 XY  3.057850E-02 XZ -5.623649E-02 YZ -6.438832E-02

 TENSOR IN PRINCIPAL AXIS SYSTEM
 AA -4.367913E-02 BB -6.880247E-02 CC  1.124816E-01

 PRINCIPAL AXES
         X             Y             Z
 A  3.567049E-01 -8.345787E-01 -4.198094E-01
 B  8.498521E-01  1.032703E-01  5.168043E-01
 C -3.879600E-01 -5.411226E-01  7.461055E-01

 ANGLES BETWEEN PRINCIPAL AXES AND ORIGINAL AXES (DEGREES)
         X             Y             Z
 A     69.102027    146.571996    114.822556
 B     31.804412     84.072482     58.881869
 C    112.827624    122.760089     41.745860


 POINT   ATOM  MASS NO  NUCLEAR G FACTOR
   14   14 O      17      -0.7575220

 TENSOR IN ORIGINAL CARTESIAN AXES
 XX  1.743985E-03 YY -7.311508E-03 ZZ  5.567524E-03 XY  1.674385E-02 XZ  7.952695E-03 YZ -7.999729E-03

 TENSOR IN PRINCIPAL AXIS SYSTEM
 AA  1.492579E-02 BB -2.432296E-02 CC  9.397163E-03

 PRINCIPAL AXES
         X             Y             Z
 A  8.149310E-01  5.263380E-01  2.426019E-01
 B -5.795233E-01  7.354805E-01  3.510287E-01
 C  6.330762E-03 -4.266577E-01  9.043910E-01

 ANGLES BETWEEN PRINCIPAL AXES AND ORIGINAL AXES (DEGREES)
         X             Y             Z
 A     35.419456     58.241639     75.959840
 B    125.417025     42.652168     69.449752
 C     89.637272    115.255634     25.258609


 POINT   ATOM  MASS NO  NUCLEAR G FACTOR
   15   15 O      17      -0.7575220

 TENSOR IN ORIGINAL CARTESIAN AXES
 XX  1.081569E-03 YY -5.625527E-03 ZZ  4.543958E-03 XY  2.574928E-03 XZ -9.641486E-04 YZ -2.088239E-03

 TENSOR IN PRINCIPAL AXIS SYSTEM
 AA  1.265655E-03 BB -6.752559E-03 CC  5.486905E-03

 PRINCIPAL AXES
         X             Y             Z
 A  8.923540E-01  2.128245E-01  3.980077E-01
 B -2.920541E-01  9.446146E-01  1.496919E-01
 C -3.441058E-01 -2.498180E-01  9.050868E-01

 ANGLES BETWEEN PRINCIPAL AXES AND ORIGINAL AXES (DEGREES)
         X             Y             Z
 A     26.829449     77.712072     66.546310
 B    106.980975     19.158455     81.390929
 C    110.127219    104.466740     25.165018


 POINT   ATOM  MASS NO  NUCLEAR G FACTOR
   16   16 O      17      -0.7575220

 TENSOR IN ORIGINAL CARTESIAN AXES
 XX  2.899599E-02 YY -1.779411E-01 ZZ  1.489451E-01 XY -2.315460E-01 XZ  5.786043E-02 YZ  8.233791E-02

 TENSOR IN PRINCIPAL AXIS SYSTEM
 AA  1.803600E-01 BB -3.484199E-01 CC  1.680598E-01

 PRINCIPAL AXES
         X             Y             Z
 A  8.296108E-01 -4.651505E-01  3.088382E-01
 B  5.344570E-01  8.216292E-01 -1.981948E-01
 C -1.615600E-01  3.294852E-01  9.302354E-01

 ANGLES BETWEEN PRINCIPAL AXES AND ORIGINAL AXES (DEGREES)
         X             Y             Z
 A     33.941225    117.719961     72.010774
 B     57.692903     34.751785    101.431415
 C     99.297458     70.762465     21.528467


 POINT   ATOM  MASS NO  NUCLEAR G FACTOR
   17   17 O      17      -0.7575220

 TENSOR IN ORIGINAL CARTESIAN AXES
 XX -3.393840E-03 YY -7.445204E-04 ZZ  4.138361E-03 XY  3.955819E-04 XZ  5.965212E-03 YZ  7.649244E-04

 TENSOR IN PRINCIPAL AXIS SYSTEM
 AA -6.682421E-03 BB -8.341385E-04 CC  7.516559E-03

 PRINCIPAL AXES
         X             Y             Z
 A  8.756218E-01  3.884279E-03 -4.829818E-01
 B -5.344193E-02  9.946068E-01 -8.888862E-02
 C  4.800317E-01  1.036443E-01  8.711070E-01

 ANGLES BETWEEN PRINCIPAL AXES AND ORIGINAL AXES (DEGREES)
         X             Y             Z
 A     28.881353     89.777447    118.880331
 B     93.063456      5.953255     95.099673
 C     61.312524     84.050936     29.412466


 POINT   ATOM  MASS NO  NUCLEAR G FACTOR
   18   18 O      17      -0.7575220

 TENSOR IN ORIGINAL CARTESIAN AXES
 XX  1.713434E-01 YY  5.223881E-03 ZZ -1.765673E-01 XY -3.716704E-02 XZ  2.148019E-02 YZ  1.411825E-01

 TENSOR IN PRINCIPAL AXIS SYSTEM
 AA  1.795735E-01 BB  7.715999E-02 CC -2.567335E-01

 PRINCIPAL AXES
         X             Y             Z
 A  9.713556E-01 -2.350963E-01 -3.461151E-02
 B  2.216743E-01  8.439968E-01  4.883952E-01
 C -8.560789E-02 -4.820779E-01  8.719359E-01

 ANGLES BETWEEN PRINCIPAL AXES AND ORIGINAL AXES (DEGREES)
         X             Y             Z
 A     13.746729    103.597299     91.983489
 B     77.192606     32.435386     60.764846
 C     94.910982    118.821199     29.315611


 POINT   ATOM  MASS NO  NUCLEAR G FACTOR
   19   19 O      17      -0.7575220

 TENSOR IN ORIGINAL CARTESIAN AXES
 XX  4.655403E-02 YY  3.876381E-02 ZZ -8.531785E-02 XY -1.695107E-01 XZ -1.163461E-01 YZ  1.141620E-01

 TENSOR IN PRINCIPAL AXIS SYSTEM
 AA  2.841305E-01 BB -1.268936E-01 CC -1.572369E-01

 PRINCIPAL AXES
         X             Y             Z
 A  6.541023E-01 -6.396951E-01 -4.036588E-01
 B  7.019696E-01  7.121510E-01  8.919522E-03
 C  2.817603E-01 -2.891905E-01  9.148661E-01

 ANGLES BETWEEN PRINCIPAL AXES AND ORIGINAL AXES (DEGREES)
         X             Y             Z
 A     49.148386    129.769084    113.807111
 B     45.414758     44.589801     89.488942
 C     73.634708    106.809501     23.813282


 POINT   ATOM  MASS NO  NUCLEAR G FACTOR
   20   20 O      17      -0.7575220

 TENSOR IN ORIGINAL CARTESIAN AXES
 XX -8.867677E-03 YY  1.147058E-02 ZZ -2.602901E-03 XY  1.143763E-03 XZ  8.771999E-03 YZ  1.993028E-03

 TENSOR IN PRINCIPAL AXIS SYSTEM
 AA -1.505152E-02 BB  1.208752E-02 CC  2.963995E-03

 PRINCIPAL AXES
         X             Y             Z
 A  8.167998E-01  8.124620E-03 -5.768641E-01
 B  1.433913E-01  9.656651E-01  2.166328E-01
 C  5.588176E-01 -2.596629E-01  7.875901E-01

 ANGLES BETWEEN PRINCIPAL AXES AND ORIGINAL AXES (DEGREES)
         X             Y             Z
 A     35.234291     89.534488    125.230278
 B     81.755864     15.057602     77.488663
 C     56.025936    105.050062     38.039135


 POINT   ATOM  MASS NO  NUCLEAR G FACTOR
   21   21 O      17      -0.7575220

 TENSOR IN ORIGINAL CARTESIAN AXES
 XX  4.388147E-03 YY -4.057623E-03 ZZ -3.305238E-04 XY -7.819135E-04 XZ  7.884545E-04 YZ  5.877567E-03

 TENSOR IN PRINCIPAL AXIS SYSTEM
 AA  4.535364E-03 BB -8.453665E-03 CC  3.918300E-03

 PRINCIPAL AXES
         X             Y             Z
 A  9.521753E-01  1.086852E-01  2.855692E-01
 B  8.510328E-02  8.032847E-01 -5.894837E-01
 C -2.934616E-01  5.855947E-01  7.556184E-01

 ANGLES BETWEEN PRINCIPAL AXES AND ORIGINAL AXES (DEGREES)
         X             Y             Z
 A     17.791399     83.760470     73.407123
 B     85.118036     36.555075    126.120382
 C    107.065309     54.154985     40.920568


 POINT   ATOM  MASS NO  NUCLEAR G FACTOR
   22   22 O      17      -0.7575220

 TENSOR IN ORIGINAL CARTESIAN AXES
 XX  6.918440E-04 YY  3.401645E-03 ZZ -4.093489E-03 XY  9.664996E-04 XZ  1.050909E-03 YZ  2.946494E-03

 TENSOR IN PRINCIPAL AXIS SYSTEM
 AA  3.838681E-04 BB  4.809375E-03 CC -5.193243E-03

 PRINCIPAL AXES
         X             Y             Z
 A  9.482584E-01 -3.171983E-01  1.382742E-02
 B  2.949499E-01  8.961945E-01  3.314212E-01
 C -1.175183E-01 -3.101945E-01  9.433816E-01

 ANGLES BETWEEN PRINCIPAL AXES AND ORIGINAL AXES (DEGREES)
         X             Y             Z
 A     18.511777    108.493576     89.207722
 B     72.845468     26.337726     70.644942
 C     96.748898    108.070954     19.372568


 POINT   ATOM  MASS NO  NUCLEAR G FACTOR
   23   23 O      17      -0.7575220

 TENSOR IN ORIGINAL CARTESIAN AXES
 XX  1.041253E-03 YY  1.098069E-03 ZZ -2.139321E-03 XY  1.204814E-03 XZ -2.364823E-04 YZ -1.237018E-03

 TENSOR IN PRINCIPAL AXIS SYSTEM
 AA  4.490498E-05 BB  2.521075E-03 CC -2.565980E-03

 PRINCIPAL AXES
         X             Y             Z
 A  7.697455E-01 -5.875973E-01  2.494418E-01
 B  6.363968E-01  7.369275E-01 -2.278968E-01
 C -4.990894E-02  3.341665E-01  9.411917E-01

 ANGLES BETWEEN PRINCIPAL AXES AND ORIGINAL AXES (DEGREES)
         X             Y             Z
 A     39.668956    125.986691     75.555518
 B     50.476340     42.529661    103.173281
 C     92.860760     70.478138     19.747339


 POINT   ATOM  MASS NO  NUCLEAR G FACTOR
   24   24 O      17      -0.7575220

 TENSOR IN ORIGINAL CARTESIAN AXES
 XX -2.763181E-03 YY  6.136780E-03 ZZ -3.373599E-03 XY -3.325204E-03 XZ -1.939984E-03 YZ  4.531228E-03

 TENSOR IN PRINCIPAL AXIS SYSTEM
 AA -3.773556E-03 BB  9.167641E-03 CC -5.394084E-03

 PRINCIPAL AXES
         X             Y             Z
 A  8.888403E-01  4.002373E-01 -2.230988E-01
 B -3.045518E-01  8.797921E-01  3.649850E-01
 C  3.423612E-01 -2.564682E-01  9.038877E-01

 ANGLES BETWEEN PRINCIPAL AXES AND ORIGINAL AXES (DEGREES)
         X             Y             Z
 A     27.272123     66.406987    102.891105
 B    107.731201     28.382704     68.593341
 C     69.979206    104.860602     25.326117


 POINT   ATOM  MASS NO  NUCLEAR G FACTOR
   25   25 O      17      -0.7575220

 TENSOR IN ORIGINAL CARTESIAN AXES
 XX  7.208720E-04 YY -1.992590E-03 ZZ  1.271718E-03 XY  1.572129E-03 XZ -4.726011E-03 YZ -1.581238E-03

 TENSOR IN PRINCIPAL AXIS SYSTEM
 AA  6.327516E-03 BB -2.586988E-03 CC -3.740528E-03

 PRINCIPAL AXES
         X             Y             Z
 A  6.639440E-01  2.587901E-01 -7.015739E-01
 B -1.417739E-01  9.647535E-01  2.216998E-01
 C  7.342196E-01 -4.773137E-02  6.772320E-01

 ANGLES BETWEEN PRINCIPAL AXES AND ORIGINAL AXES (DEGREES)
         X             Y             Z
 A     48.398634     75.001715    134.553417
 B     98.150507     15.257359     77.191112
 C     42.758682     92.735846     47.372278


 POINT   ATOM  MASS NO  NUCLEAR G FACTOR
   26   26 O      17      -0.7575220

 TENSOR IN ORIGINAL CARTESIAN AXES
 XX -1.930146E-02 YY  1.501142E-02 ZZ  4.290041E-03 XY  1.444012E-02 XZ  1.290477E-02 YZ  3.311267E-02

 TENSOR IN PRINCIPAL AXIS SYSTEM
 AA -2.499660E-02 BB  4.870635E-02 CC -2.370975E-02

 PRINCIPAL AXES
         X             Y             Z
 A  8.907433E-01  5.218826E-02 -4.515005E-01
 B  2.738133E-01  7.312676E-01  6.247191E-01
 C  3.627707E-01 -6.800913E-01  6.370819E-01

 ANGLES BETWEEN PRINCIPAL AXES AND ORIGINAL AXES (DEGREES)
         X             Y             Z
 A     27.033197     87.008474    116.839995
 B     74.108690     43.007235     51.338425
 C     68.729549    132.850775     50.425435


 POINT   ATOM  MASS NO  NUCLEAR G FACTOR
   27   27 O      17      -0.7575220

 TENSOR IN ORIGINAL CARTESIAN AXES
 XX  2.734025E-02 YY  6.956786E-03 ZZ -3.429704E-02 XY -4.819869E-02 XZ  9.986597E-03 YZ -6.923446E-03

 TENSOR IN PRINCIPAL AXIS SYSTEM
 AA  6.785057E-02 BB -3.190262E-02 CC -3.594795E-02

 PRINCIPAL AXES
         X             Y             Z
 A  7.720790E-01 -6.245113E-01  1.178120E-01
 B  5.910691E-01  7.737386E-01  2.279603E-01
 C -2.335195E-01 -1.063684E-01  9.665166E-01

 ANGLES BETWEEN PRINCIPAL AXES AND ORIGINAL AXES (DEGREES)
         X             Y             Z
 A     39.459052    128.646328     83.234157
 B     53.767088     39.309193     76.822982
 C    103.504368     96.106010     14.868647


 POINT   ATOM  MASS NO  NUCLEAR G FACTOR
   28   28 O      17      -0.7575220

 TENSOR IN ORIGINAL CARTESIAN AXES
 XX  3.542088E-02 YY  4.614714E-02 ZZ -8.156801E-02 XY -5.750228E-04 XZ  3.514853E-02 YZ  5.782101E-03

 TENSOR IN PRINCIPAL AXIS SYSTEM
 AA  4.461486E-02 BB  4.693914E-02 CC -9.155400E-02

 PRINCIPAL AXES
         X             Y             Z
 A  8.464856E-01 -4.877556E-01  2.134400E-01
 B  4.607809E-01  8.719911E-01  1.652648E-01
 C -2.667266E-01 -4.154521E-02  9.628764E-01

 ANGLES BETWEEN PRINCIPAL AXES AND ORIGINAL AXES (DEGREES)
         X             Y             Z
 A     32.168544    119.193168     77.675977
 B     62.562491     29.309149     80.487381
 C    105.469575     92.381051     15.660862


 POINT   ATOM  MASS NO  NUCLEAR G FACTOR
   29   29 O      17      -0.7575220

 TENSOR IN ORIGINAL CARTESIAN AXES
 XX -1.844178E-03 YY  1.036007E-03 ZZ  8.081711E-04 XY -2.526053E-04 XZ -2.706257E-03 YZ  6.290967E-04

 TENSOR IN PRINCIPAL AXIS SYSTEM
 AA -3.534857E-03 BB  7.796481E-04 CC  2.755209E-03

 PRINCIPAL AXES
         X             Y             Z
 A  8.466996E-01 -2.634945E-02  5.314184E-01
 B  2.134815E-01  9.316784E-01 -2.939406E-01
 C -4.873659E-01  3.623274E-01  7.944768E-01

 ANGLES BETWEEN PRINCIPAL AXES AND ORIGINAL AXES (DEGREES)
         X             Y             Z
 A     32.145510     91.509887     57.898657
 B     77.673546     21.302028    107.094022
 C    119.167596     68.756803     37.394135


 POINT   ATOM  MASS NO  NUCLEAR G FACTOR
   30   30 O      17      -0.7575220

 TENSOR IN ORIGINAL CARTESIAN AXES
 XX  2.041021E-01 YY -8.915241E-02 ZZ -1.149497E-01 XY  1.061427E-01 XZ  6.862311E-02 YZ  1.962726E-02

 TENSOR IN PRINCIPAL AXIS SYSTEM
 AA  2.523422E-01 BB -1.225877E-01 CC -1.297545E-01

 PRINCIPAL AXES
         X             Y             Z
 A  9.342605E-01  3.013430E-01  1.906560E-01
 B -2.198295E-01  9.076936E-01 -3.574457E-01
 C -2.807710E-01  2.920356E-01  9.142663E-01

 ANGLES BETWEEN PRINCIPAL AXES AND ORIGINAL AXES (DEGREES)
         X             Y             Z
 A     20.891001     72.461713     79.008932
 B    102.699017     24.811461    110.943409
 C    106.306224     73.020138     23.898252


 POINT   ATOM  MASS NO  NUCLEAR G FACTOR
   31   31 O      17      -0.7575220

 TENSOR IN ORIGINAL CARTESIAN AXES
 XX -3.070509E-03 YY  1.705025E-03 ZZ  1.365484E-03 XY  8.399300E-04 XZ  7.168927E-04 YZ  3.725233E-03

 TENSOR IN PRINCIPAL AXIS SYSTEM
 AA -3.217568E-03 BB  5.407739E-03 CC -2.190171E-03

 PRINCIPAL AXES
         X             Y             Z
 A  9.898787E-01 -1.343887E-01 -4.560457E-02
 B  1.289645E-01  7.177109E-01  6.842947E-01
 C -5.923057E-02 -6.832501E-01  7.277781E-01

 ANGLES BETWEEN PRINCIPAL AXES AND ORIGINAL AXES (DEGREES)
         X             Y             Z
 A      8.158721     97.723272     92.613856
 B     82.590242     44.134190     46.819836
 C     93.395649    133.098145     43.299552


 POINT   ATOM  MASS NO  NUCLEAR G FACTOR
   32   32 O      17      -0.7575220

 TENSOR IN ORIGINAL CARTESIAN AXES
 XX  2.156719E-03 YY  1.554492E-03 ZZ -3.711212E-03 XY  2.520995E-02 XZ  3.129623E-02 YZ -2.210098E-02

 TENSOR IN PRINCIPAL AXIS SYSTEM
 AA  3.175576E-02 BB -5.272280E-02 CC  2.096705E-02

 PRINCIPAL AXES
         X             Y             Z
 A  7.995806E-01  2.777952E-01  5.324478E-01
 B -5.906486E-01  5.241509E-01  6.135145E-01
 C -1.086516E-01 -8.050439E-01  5.831803E-01

 ANGLES BETWEEN PRINCIPAL AXES AND ORIGINAL AXES (DEGREES)
         X             Y             Z
 A     36.909930     73.871339     57.829005
 B    126.203045     58.388898     52.155937
 C     96.237593    143.614491     54.325463


 POINT   ATOM  MASS NO  NUCLEAR G FACTOR
   33   33 O      17      -0.7575220

 TENSOR IN ORIGINAL CARTESIAN AXES
 XX  3.309164E-04 YY -1.345177E-03 ZZ  1.014260E-03 XY -2.418381E-04 XZ -2.740591E-03 YZ  3.454826E-04

 TENSOR IN PRINCIPAL AXIS SYSTEM
 AA -2.092360E-03 BB -1.378499E-03 CC  3.470859E-03

 PRINCIPAL AXES
         X             Y             Z
 A  7.446026E-01 -6.612174E-02  6.642250E-01
 B  1.069900E-01  9.940387E-01 -2.098306E-02
 C -6.588779E-01  8.668947E-02  7.472382E-01

 ANGLES BETWEEN PRINCIPAL AXES AND ORIGINAL AXES (DEGREES)
         X             Y             Z
 A     41.875020     93.791263     48.377104
 B     83.858169      6.259298     91.202329
 C    131.214349     85.026817     41.648297


 POINT   ATOM  MASS NO  NUCLEAR G FACTOR
   34   34 O      17      -0.7575220

 TENSOR IN ORIGINAL CARTESIAN AXES
 XX -2.721468E-03 YY -6.455906E-04 ZZ  3.367058E-03 XY  1.428574E-04 XZ -7.108125E-04 YZ  2.403995E-04

 TENSOR IN PRINCIPAL AXIS SYSTEM
 AA -2.816622E-03 BB -6.443854E-04 CC  3.461007E-03

 PRINCIPAL AXES
         X             Y             Z
 A  9.900756E-01 -7.808733E-02  1.168447E-01
 B  8.380120E-02  9.954746E-01 -4.480800E-02
 C -1.128170E-01  5.415503E-02  9.921389E-01

 ANGLES BETWEEN PRINCIPAL AXES AND ORIGINAL AXES (DEGREES)
         X             Y             Z
 A      8.078853     94.478634     83.289964
 B     85.192907      5.452955     92.568169
 C     96.477729     86.895626      7.188938


 POINT   ATOM  MASS NO  NUCLEAR G FACTOR
   35   35 O      17      -0.7575220

 TENSOR IN ORIGINAL CARTESIAN AXES
 XX  7.856180E-03 YY  3.326408E-03 ZZ -1.118259E-02 XY -8.564735E-04 XZ -1.267315E-03 YZ -6.397427E-03

 TENSOR IN PRINCIPAL AXIS SYSTEM
 AA  8.013604E-03 BB  5.689626E-03 CC -1.370323E-02

 PRINCIPAL AXES
         X             Y             Z
 A  9.858301E-01 -1.674908E-01 -9.264775E-03
 B  1.529494E-01  9.201764E-01 -3.603911E-01
 C  6.888744E-02  3.538674E-01  9.327553E-01

 ANGLES BETWEEN PRINCIPAL AXES AND ORIGINAL AXES (DEGREES)
         X             Y             Z
 A      9.656843     99.641962     90.530840
 B     81.202110     23.048109    111.124219
 C     86.049912     69.275954     21.131533


 POINT   ATOM  MASS NO  NUCLEAR G FACTOR
   36   36 O      17      -0.7575220

 TENSOR IN ORIGINAL CARTESIAN AXES
 XX -2.931387E-03 YY -8.364831E-04 ZZ  3.767870E-03 XY -2.963952E-03 XZ  3.877212E-03 YZ -3.329622E-03

 TENSOR IN PRINCIPAL AXIS SYSTEM
 AA -5.316470E-03 BB -2.386596E-03 CC  7.703066E-03

 PRINCIPAL AXES
         X             Y             Z
 A  8.810627E-01  4.170324E-01 -2.231870E-01
 B -2.287068E-01  7.886367E-01  5.707411E-01
 C  4.140310E-01 -4.518143E-01  7.902166E-01

 ANGLES BETWEEN PRINCIPAL AXES AND ORIGINAL AXES (DEGREES)
         X             Y             Z
 A     28.229172     65.352629    102.896289
 B    103.220949     37.941711     55.198081
 C     65.541694    116.860148     37.794247


 POINT   ATOM  MASS NO  NUCLEAR G FACTOR
   37   37 O      17      -0.7575220

 TENSOR IN ORIGINAL CARTESIAN AXES
 XX  1.736628E-03 YY -7.156522E-04 ZZ -1.020976E-03 XY  3.671339E-04 XZ  1.654078E-03 YZ  6.175255E-04

 TENSOR IN PRINCIPAL AXIS SYSTEM
 AA  2.618358E-03 BB -6.803220E-04 CC -1.938036E-03

 PRINCIPAL AXES
         X             Y             Z
 A  8.842585E-01  1.773888E-01  4.319955E-01
 B -2.983545E-01  9.262367E-01  2.303694E-01
 C -3.592651E-01 -3.325939E-01  8.719575E-01

 ANGLES BETWEEN PRINCIPAL AXES AND ORIGINAL AXES (DEGREES)
         X             Y             Z
 A     27.839588     79.782300     64.405735
 B    107.358799     22.144409     76.681179
 C    111.055073    109.426291     29.313086


 POINT   ATOM  MASS NO  NUCLEAR G FACTOR
   38   38 O      17      -0.7575220

 TENSOR IN ORIGINAL CARTESIAN AXES
 XX -6.796193E-02 YY -7.804239E-02 ZZ  1.460043E-01 XY -1.056709E-01 XZ  1.826449E-01 YZ -1.818668E-01

 TENSOR IN PRINCIPAL AXIS SYSTEM
 AA -1.724973E-01 BB -1.807681E-01 CC  3.532653E-01

 PRINCIPAL AXES
         X             Y             Z
 A  8.294245E-01 -1.217950E-01 -5.451798E-01
 B  3.338792E-01  8.905266E-01  3.090099E-01
 C  4.478613E-01 -4.383246E-01  7.792893E-01

 ANGLES BETWEEN PRINCIPAL AXES AND ORIGINAL AXES (DEGREES)
         X             Y             Z
 A     33.960339     96.995707    123.036954
 B     70.495600     27.060511     72.000430
 C     63.393452    115.997031     38.804447


 POINT   ATOM  MASS NO  NUCLEAR G FACTOR
   39   39 O      17      -0.7575220

 TENSOR IN ORIGINAL CARTESIAN AXES
 XX  1.570415E-02 YY -1.257175E-02 ZZ -3.132401E-03 XY  3.510256E-03 XZ  9.905443E-03 YZ -6.302799E-04

 TENSOR IN PRINCIPAL AXIS SYSTEM
 AA  2.022559E-02 BB -1.347013E-02 CC -6.755459E-03

 PRINCIPAL AXES
         X             Y             Z
 A  9.177146E-01  9.078992E-02  3.867262E-01
 B -1.982212E-01  9.483290E-01  2.477508E-01
 C -3.442504E-01 -3.040219E-01  8.882918E-01

 ANGLES BETWEEN PRINCIPAL AXES AND ORIGINAL AXES (DEGREES)
         X             Y             Z
 A     23.405776     84.790948     67.249055
 B    101.432957     18.499035     75.655542
 C    110.136042    107.699327     27.340622


 POINT   ATOM  MASS NO  NUCLEAR G FACTOR
   40   40 O      17      -0.7575220

 TENSOR IN ORIGINAL CARTESIAN AXES
 XX  1.215108E-02 YY  5.126196E-03 ZZ -1.727728E-02 XY -2.372067E-02 XZ  3.330614E-03 YZ -4.135777E-03

 TENSOR IN PRINCIPAL AXIS SYSTEM
 AA  3.315912E-02 BB -1.501826E-02 CC -1.814086E-02

 PRINCIPAL AXES
         X             Y             Z
 A  7.517666E-01 -6.513272E-01  1.030523E-01
 B  6.451288E-01  6.940586E-01 -3.195177E-01
 C  1.365862E-01  3.066847E-01  9.419600E-01

 ANGLES BETWEEN PRINCIPAL AXES AND ORIGINAL AXES (DEGREES)
         X             Y             Z
 A     41.256358    130.641743     84.085036
 B     49.824669     46.047753    108.633757
 C     82.149649     72.140450     19.616634


 POINT   ATOM  MASS NO  NUCLEAR G FACTOR
   41   41 O      17      -0.7575220

 TENSOR IN ORIGINAL CARTESIAN AXES
 XX -1.023318E-02 YY  9.555574E-03 ZZ  6.776026E-04 XY -3.898373E-03 XZ  7.186636E-03 YZ -7.459918E-04

 TENSOR IN PRINCIPAL AXIS SYSTEM
 AA -1.422600E-02 BB  1.083593E-02 CC  3.390067E-03

 PRINCIPAL AXES
         X             Y             Z
 A  8.952884E-01  1.334266E-01 -4.250366E-01
 B -2.582954E-01  9.328254E-01 -2.512376E-01
 C  3.629631E-01  3.347151E-01  8.696112E-01

 ANGLES BETWEEN PRINCIPAL AXES AND ORIGINAL AXES (DEGREES)
         X             Y             Z
 A     26.454506     82.332354    115.152978
 B    104.968941     21.120391    104.550760
 C     68.717717     70.444786     29.586514


 POINT   ATOM  MASS NO  NUCLEAR G FACTOR
   42   42 O      17      -0.7575220

 TENSOR IN ORIGINAL CARTESIAN AXES
 XX  3.658387E-02 YY -2.735959E-02 ZZ -9.224285E-03 XY -6.630855E-02 XZ  5.449864E-02 YZ -5.618789E-02

 TENSOR IN PRINCIPAL AXIS SYSTEM
 AA  1.226676E-01 BB -7.934795E-02 CC -4.331963E-02

 PRINCIPAL AXES
         X             Y             Z
 A  7.042391E-01 -5.000191E-01  5.040121E-01
 B  2.590800E-01  8.419529E-01  4.732788E-01
 C -6.610029E-01 -2.027220E-01  7.224811E-01

 ANGLES BETWEEN PRINCIPAL AXES AND ORIGINAL AXES (DEGREES)
         X             Y             Z
 A     45.231893    120.001261     59.734205
 B     74.984519     32.653077     61.752659
 C    131.376402    101.696178     43.740290


 POINT   ATOM  MASS NO  NUCLEAR G FACTOR
   43   43 O      17      -0.7575220

 TENSOR IN ORIGINAL CARTESIAN AXES
 XX  4.739098E-03 YY -6.774067E-04 ZZ -4.061691E-03 XY -6.130345E-03 XZ -9.028779E-03 YZ -1.228973E-02

 TENSOR IN PRINCIPAL AXIS SYSTEM
 AA  8.581411E-03 BB -1.960784E-02 CC  1.102643E-02

 PRINCIPAL AXES
         X             Y             Z
 A  7.021203E-01 -6.913207E-01  1.705955E-01
 B  4.072993E-01  5.864348E-01  7.001439E-01
 C -5.840671E-01 -4.221018E-01  6.933222E-01

 ANGLES BETWEEN PRINCIPAL AXES AND ORIGINAL AXES (DEGREES)
         X             Y             Z
 A     45.402637    133.734743     80.177555
 B     65.964705     54.095582     45.561451
 C    125.737112    114.967354     46.106329


 POINT   ATOM  MASS NO  NUCLEAR G FACTOR
   44   44 O      17      -0.7575220

 TENSOR IN ORIGINAL CARTESIAN AXES
 XX -1.298452E-04 YY -2.121066E-05 ZZ  1.510559E-04 XY  1.660200E-03 XZ -1.630796E-03 YZ  6.059157E-04

 TENSOR IN PRINCIPAL AXIS SYSTEM
 AA -2.673367E-03 BB  2.002109E-03 CC  6.712586E-04

 PRINCIPAL AXES
         X             Y             Z
 A  6.749404E-01 -5.378968E-01  5.050965E-01
 B  7.368196E-01  4.547666E-01 -5.002842E-01
 C  3.940020E-02  7.098270E-01  7.032732E-01

 ANGLES BETWEEN PRINCIPAL AXES AND ORIGINAL AXES (DEGREES)
         X             Y             Z
 A     47.550477    122.540578     59.662240
 B     42.538809     62.950081    120.018802
 C     87.741950     44.779158     45.309790


 POINT   ATOM  MASS NO  NUCLEAR G FACTOR
   45   45 O      17      -0.7575220

 TENSOR IN ORIGINAL CARTESIAN AXES
 XX  2.565387E-03 YY  6.107768E-02 ZZ -6.364306E-02 XY  1.009676E-01 XZ -4.144689E-02 YZ  7.341400E-02

 TENSOR IN PRINCIPAL AXIS SYSTEM
 AA -1.477642E-01 BB  1.433082E-01 CC  4.455979E-03

 PRINCIPAL AXES
         X             Y             Z
 A  5.242741E-01 -4.966319E-01  6.917322E-01
 B  5.363859E-01  8.235124E-01  1.847093E-01
 C -6.613826E-01  2.741971E-01  6.981325E-01

 ANGLES BETWEEN PRINCIPAL AXES AND ORIGINAL AXES (DEGREES)
         X             Y             Z
 A     58.380614    119.777419     46.232615
 B     57.562053     34.562039     79.355817
 C    131.405402     74.085828     45.722632


 POINT   ATOM  MASS NO  NUCLEAR G FACTOR
   46   46 O      17      -0.7575220

 TENSOR IN ORIGINAL CARTESIAN AXES
 XX  1.062184E-02 YY -1.173924E-02 ZZ  1.117397E-03 XY -1.644064E-02 XZ  2.125737E-02 YZ -1.343509E-02

 TENSOR IN PRINCIPAL AXIS SYSTEM
 AA  3.691609E-02 BB -2.101049E-02 CC -1.590560E-02

 PRINCIPAL AXES
         X             Y             Z
 A  7.143276E-01 -3.999424E-01  5.742666E-01
 B  2.887284E-01  9.159348E-01  2.787460E-01
 C -6.374731E-01 -3.330887E-02  7.697523E-01

 ANGLES BETWEEN PRINCIPAL AXES AND ORIGINAL AXES (DEGREES)
         X             Y             Z
 A     44.411877    113.574579     54.951714
 B     73.218156     23.661166     73.814625
 C    129.603651     91.908811     39.668350


 POINT   ATOM  MASS NO  NUCLEAR G FACTOR
   47   47 O      17      -0.7575220

 TENSOR IN ORIGINAL CARTESIAN AXES
 XX -7.495984E-04 YY  4.036789E-03 ZZ -3.287191E-03 XY -2.306528E-03 XZ -1.495183E-03 YZ  1.401859E-03

 TENSOR IN PRINCIPAL AXIS SYSTEM
 AA -1.377419E-03 BB  5.371603E-03 CC -3.994184E-03

 PRINCIPAL AXES
         X             Y             Z
 A  8.347187E-01  4.409946E-01 -3.298007E-01
 B -3.895624E-01  8.961830E-01  2.123609E-01
 C  3.892118E-01 -4.878366E-02  9.198556E-01

 ANGLES BETWEEN PRINCIPAL AXES AND ORIGINAL AXES (DEGREES)
         X             Y             Z
 A     33.413441     63.832645    109.256678
 B    112.927276     26.339212     77.739257
 C     67.094539     92.796208     23.095016


 POINT   ATOM  MASS NO  NUCLEAR G FACTOR
   48   48 O      17      -0.7575220

 TENSOR IN ORIGINAL CARTESIAN AXES
 XX  5.189314E-03 YY -1.814468E-03 ZZ -3.374846E-03 XY -2.679558E-04 XZ -1.881307E-03 YZ  3.927520E-04

 TENSOR IN PRINCIPAL AXIS SYSTEM
 AA  5.600248E-03 BB -1.776059E-03 CC -3.824189E-03

 PRINCIPAL AXES
         X             Y             Z
 A  9.772724E-01 -4.627505E-02 -2.068751E-01
 B  7.839476E-02  9.855926E-01  1.498715E-01
 C  1.969593E-01 -1.626832E-01  9.668202E-01

 ANGLES BETWEEN PRINCIPAL AXES AND ORIGINAL AXES (DEGREES)
         X             Y             Z
 A     12.238849     92.652312    101.939288
 B     85.503697      9.737628     81.380518
 C     78.640799     99.362676     14.800725


 POINT   ATOM  MASS NO  NUCLEAR G FACTOR
   49   49 O      17      -0.7575220

 TENSOR IN ORIGINAL CARTESIAN AXES
 XX  7.572897E-03 YY  1.017321E-02 ZZ -1.774610E-02 XY -6.419419E-04 XZ  3.121932E-03 YZ  7.838026E-03

 TENSOR IN PRINCIPAL AXIS SYSTEM
 AA  7.931592E-03 BB  1.222970E-02 CC -2.016129E-02

 PRINCIPAL AXES
         X             Y             Z
 A  9.927180E-01 -6.662552E-02  1.003589E-01
 B  3.887716E-02  9.657434E-01  2.565701E-01
 C -1.140151E-01 -2.508001E-01  9.613011E-01

 ANGLES BETWEEN PRINCIPAL AXES AND ORIGINAL AXES (DEGREES)
         X             Y             Z
 A      6.918714     93.820191     84.240161
 B     87.771942     15.040327     75.133360
 C     96.546820    104.524862     15.991800


 POINT   ATOM  MASS NO  NUCLEAR G FACTOR
   50   50 O      17      -0.7575220

 TENSOR IN ORIGINAL CARTESIAN AXES
 XX -2.386999E-04 YY  3.071684E-03 ZZ -2.832985E-03 XY  7.252151E-04 XZ -1.250748E-03 YZ  9.746603E-04

 TENSOR IN PRINCIPAL AXIS SYSTEM
 AA  2.366892E-04 BB  3.310542E-03 CC -3.547232E-03

 PRINCIPAL AXES
         X             Y             Z
 A  9.109756E-01 -9.504934E-02 -4.013591E-01
 B  1.566781E-01  9.798902E-01  1.235602E-01
 C  3.815436E-01 -1.754445E-01  9.075482E-01

 ANGLES BETWEEN PRINCIPAL AXES AND ORIGINAL AXES (DEGREES)
         X             Y             Z
 A     24.359482     95.454159    113.663170
 B     80.985867     11.509904     82.902384
 C     67.570673    100.104525     24.831299


 POINT   ATOM  MASS NO  NUCLEAR G FACTOR
   51   51 O      17      -0.7575220

 TENSOR IN ORIGINAL CARTESIAN AXES
 XX -7.563545E-04 YY  3.282989E-03 ZZ -2.526634E-03 XY -4.631324E-04 XZ -1.537444E-03 YZ  9.946060E-04

 TENSOR IN PRINCIPAL AXIS SYSTEM
 AA -9.821825E-05 BB  3.574335E-03 CC -3.476116E-03

 PRINCIPAL AXES
         X             Y             Z
 A  8.611758E-01  2.484085E-01 -4.434743E-01
 B -1.744776E-01  9.639051E-01  2.011083E-01
 C  4.774241E-01 -9.581323E-02  8.734335E-01

 ANGLES BETWEEN PRINCIPAL AXES AND ORIGINAL AXES (DEGREES)
         X             Y             Z
 A     30.551142     75.616642    116.325766
 B    100.048260     15.441008     78.398225
 C     61.482696     95.498128     29.139885


 POINT   ATOM  MASS NO  NUCLEAR G FACTOR
   52   52 O      17      -0.7575220

 TENSOR IN ORIGINAL CARTESIAN AXES
 XX  5.894119E-03 YY -8.283498E-03 ZZ  2.389379E-03 XY -3.116178E-02 XZ -1.744278E-02 YZ  8.750568E-03

 TENSOR IN PRINCIPAL AXIS SYSTEM
 AA  4.040704E-02 BB -3.368930E-02 CC -6.717741E-03

 PRINCIPAL AXES
         X             Y             Z
 A  7.128832E-01 -5.372481E-01 -4.507350E-01
 B  6.483319E-01  7.499047E-01  1.315629E-01
 C  2.673263E-01 -3.860148E-01  8.829095E-01

 ANGLES BETWEEN PRINCIPAL AXES AND ORIGINAL AXES (DEGREES)
         X             Y             Z
 A     44.530014    122.496502    116.790849
 B     49.584051     41.417880     82.440083
 C     74.494771    112.706758     28.004649


 POINT   ATOM  MASS NO  NUCLEAR G FACTOR
   53   53 O      17      -0.7575220

 TENSOR IN ORIGINAL CARTESIAN AXES
 XX  3.323368E-02 YY -1.421379E-02 ZZ -1.901989E-02 XY -7.757994E-03 XZ  7.287307E-03 YZ -1.622681E-03

 TENSOR IN PRINCIPAL AXIS SYSTEM
 AA  3.548878E-02 BB -1.540614E-02 CC -2.008263E-02

 PRINCIPAL AXES
         X             Y             Z
 A  9.782461E-01 -1.571153E-01  1.354597E-01
 B  1.707824E-01  9.806270E-01 -9.593754E-02
 C -1.177622E-01  1.169847E-01  9.861271E-01

 ANGLES BETWEEN PRINCIPAL AXES AND ORIGINAL AXES (DEGREES)
         X             Y             Z
 A     11.972824     99.039499     82.214797
 B     80.166688     11.296383     95.505283
 C     96.762970     83.281890      9.554866


 POINT   ATOM  MASS NO  NUCLEAR G FACTOR
   54   54 O      17      -0.7575220

 TENSOR IN ORIGINAL CARTESIAN AXES
 XX  1.397575E-03 YY  8.280593E-03 ZZ -9.678167E-03 XY  5.497167E-03 XZ  6.452781E-03 YZ -2.880014E-03

 TENSOR IN PRINCIPAL AXIS SYSTEM
 AA  2.432310E-03 BB  1.134604E-02 CC -1.377835E-02

 PRINCIPAL AXES
         X             Y             Z
 A  7.399680E-01 -4.488182E-01  5.010087E-01
 B  5.007413E-01  8.648805E-01  3.521210E-02
 C -4.491164E-01  2.248199E-01  8.647256E-01

 ANGLES BETWEEN PRINCIPAL AXES AND ORIGINAL AXES (DEGREES)
         X             Y             Z
 A     42.271314    116.667884     59.933245
 B     59.950945     30.130938     87.982078
 C    116.687010     77.007712     30.148608


 POINT   ATOM  MASS NO  NUCLEAR G FACTOR
   55   55 O      17      -0.7575220

 TENSOR IN ORIGINAL CARTESIAN AXES
 XX -1.968298E-03 YY  1.621258E-03 ZZ  3.470399E-04 XY -1.227811E-04 XZ -1.734608E-04 YZ -1.482699E-03

 TENSOR IN PRINCIPAL AXIS SYSTEM
 AA -2.001201E-03 BB  2.597946E-03 CC -5.967452E-04

 PRINCIPAL AXES
         X             Y             Z
 A  9.882195E-01  8.546081E-02  1.269595E-01
 B -1.562928E-03  8.351578E-01 -5.500081E-01
 C -1.530353E-01  5.433303E-01  8.254528E-01

 ANGLES BETWEEN PRINCIPAL AXES AND ORIGINAL AXES (DEGREES)
         X             Y             Z
 A      8.803333     85.097476     82.706072
 B     90.089549     33.367724    123.367572
 C     98.802871     57.089362     34.365575


 POINT   ATOM  MASS NO  NUCLEAR G FACTOR
   56   56 O      17      -0.7575220

 TENSOR IN ORIGINAL CARTESIAN AXES
 XX  1.378898E-03 YY -3.683220E-03 ZZ  2.304322E-03 XY  3.517255E-03 XZ  2.151902E-03 YZ -4.641145E-03

 TENSOR IN PRINCIPAL AXIS SYSTEM
 AA  3.162391E-03 BB -8.017821E-03 CC  4.855429E-03

 PRINCIPAL AXES
         X             Y             Z
 A  9.097535E-01  4.047110E-01  9.250754E-02
 B -4.015086E-01  8.010899E-01  4.438984E-01
 C  1.055437E-01 -4.409806E-01  8.912893E-01

 ANGLES BETWEEN PRINCIPAL AXES AND ORIGINAL AXES (DEGREES)
         X             Y             Z
 A     24.528696     66.126982     84.692120
 B    113.672523     36.765690     63.647122
 C     83.941508    116.166467     26.964292


 POINT   ATOM  MASS NO  NUCLEAR G FACTOR
   57   57 SI     29      -1.1106000

 TENSOR IN ORIGINAL CARTESIAN AXES
 XX  6.265863E-02 YY  3.134564E-01 ZZ -3.761151E-01 XY  6.098538E-01 XZ  1.822513E-01 YZ  1.998550E-01

 TENSOR IN PRINCIPAL AXIS SYSTEM
 AA -4.199953E-01 BB  8.692426E-01 CC -4.492473E-01

 PRINCIPAL AXES
         X             Y             Z
 A  4.535541E-01 -5.649456E-01  6.892932E-01
 B  6.194254E-01  7.559012E-01  2.119565E-01
 C -6.407815E-01  3.308320E-01  6.927837E-01

 ANGLES BETWEEN PRINCIPAL AXES AND ORIGINAL AXES (DEGREES)
         X             Y             Z
 A     63.028061    124.398516     46.425813
 B     51.725817     40.895821     77.762966
 C    129.850118     70.680721     46.149129


 POINT   ATOM  MASS NO  NUCLEAR G FACTOR
   58   58 SI     29      -1.1106000

 TENSOR IN ORIGINAL CARTESIAN AXES
 XX -1.015725E-02 YY -2.562052E-02 ZZ  3.577778E-02 XY -5.529716E-02 XZ -9.140290E-03 YZ -1.069043E-02

 TENSOR IN PRINCIPAL AXIS SYSTEM
 AA  3.797972E-02 BB -7.550160E-02 CC  3.752188E-02

 PRINCIPAL AXES
         X             Y             Z
 A  7.041136E-01 -6.573354E-01  2.685780E-01
 B  6.510452E-01  7.486098E-01  1.253934E-01
 C -2.834856E-01  8.656520E-02  9.550615E-01

 ANGLES BETWEEN PRINCIPAL AXES AND ORIGINAL AXES (DEGREES)
         X             Y             Z
 A     45.242020    131.096973     74.420336
 B     49.379545     41.529905     82.796526
 C    106.468347     85.033964     17.241978


 POINT   ATOM  MASS NO  NUCLEAR G FACTOR
   59   59 SI     29      -1.1106000

 TENSOR IN ORIGINAL CARTESIAN AXES
 XX -1.493780E-03 YY  2.140453E-03 ZZ -6.466724E-04 XY -3.351265E-04 XZ -2.230888E-03 YZ  6.631193E-04

 TENSOR IN PRINCIPAL AXIS SYSTEM
 AA -3.346022E-03 BB  2.537623E-03 CC  8.083993E-04

 PRINCIPAL AXES
         X             Y             Z
 A  7.667481E-01 -3.066534E-02  6.412152E-01
 B -2.847559E-01  8.789642E-01  3.825389E-01
 C -5.753359E-01 -4.759008E-01  6.652120E-01

 ANGLES BETWEEN PRINCIPAL AXES AND ORIGINAL AXES (DEGREES)
         X             Y             Z
 A     39.937238     91.757270     50.117503
 B    106.544257     28.482331     67.508964
 C    125.123162    118.418015     48.301408


 POINT   ATOM  MASS NO  NUCLEAR G FACTOR
   60   60 SI     29      -1.1106000

 TENSOR IN ORIGINAL CARTESIAN AXES
 XX  4.090105E-04 YY -5.696878E-05 ZZ -3.520418E-04 XY  1.166787E-03 XZ  3.898162E-03 YZ  2.679670E-05

 TENSOR IN PRINCIPAL AXIS SYSTEM
 AA  4.134152E-03 BB -9.562935E-05 CC -4.038522E-03

 PRINCIPAL AXES
         X             Y             Z
 A  7.374880E-01  2.094180E-01  6.420713E-01
 B -2.524776E-02  9.585939E-01 -2.836552E-01
 C -6.748882E-01  1.929814E-01  7.122388E-01

 ANGLES BETWEEN PRINCIPAL AXES AND ORIGINAL AXES (DEGREES)
         X             Y             Z
 A     42.482132     77.911754     50.053553
 B     91.446744     16.545496    106.478480
 C    132.445466     78.873171     44.582635


 POINT   ATOM  MASS NO  NUCLEAR G FACTOR
   61   61 SI     29      -1.1106000

 TENSOR IN ORIGINAL CARTESIAN AXES
 XX -8.562082E-03 YY -2.903783E-02 ZZ  3.759991E-02 XY  1.608448E-02 XZ  4.677378E-02 YZ  1.880443E-02

 TENSOR IN PRINCIPAL AXIS SYSTEM
 AA -3.241224E-02 BB -4.016158E-02 CC  7.257382E-02

 PRINCIPAL AXES
         X             Y             Z
 A  3.798012E-01  7.979223E-01 -4.680503E-01
 B -7.650939E-01  5.553500E-01  3.259106E-01
 C  5.199830E-01  2.343212E-01  8.214081E-01

 ANGLES BETWEEN PRINCIPAL AXES AND ORIGINAL AXES (DEGREES)
         X             Y             Z
 A     67.678631     37.067852    117.907814
 B    139.915347     56.265174     70.979250
 C     58.668886     76.448385     34.774005


 POINT   ATOM  MASS NO  NUCLEAR G FACTOR
   62   62 SI     29      -1.1106000

 TENSOR IN ORIGINAL CARTESIAN AXES
 XX -1.555096E-02 YY -1.045023E-02 ZZ  2.600120E-02 XY  1.734385E-02 XZ  2.960178E-02 YZ  3.264093E-02

 TENSOR IN PRINCIPAL AXIS SYSTEM
 AA -3.100561E-02 BB -2.960867E-02 CC  6.061428E-02

 PRINCIPAL AXES
         X             Y             Z
 A  9.116290E-01 -1.927363E-01 -3.630225E-01
 B -1.594576E-02  8.659862E-01 -4.998136E-01
 C  4.107046E-01  4.614333E-01  7.863848E-01

 ANGLES BETWEEN PRINCIPAL AXES AND ORIGINAL AXES (DEGREES)
         X             Y             Z
 A     24.268554    101.112514    111.285932
 B     90.913664     30.004495    119.987672
 C     65.750893     62.520367     38.151065


 POINT   ATOM  MASS NO  NUCLEAR G FACTOR
   63   63 SI     29      -1.1106000

 TENSOR IN ORIGINAL CARTESIAN AXES
 XX  6.744322E-04 YY -2.522234E-03 ZZ  1.847802E-03 XY  1.034895E-02 XZ -9.186812E-03 YZ  1.271772E-02

 TENSOR IN PRINCIPAL AXIS SYSTEM
 AA  9.174623E-03 BB -2.176939E-02 CC  1.259476E-02

 PRINCIPAL AXES
         X             Y             Z
 A  8.476364E-01  4.571544E-01 -2.692997E-01
 B -5.247612E-01  6.473839E-01 -5.527384E-01
 C -7.834654E-02  6.098393E-01  7.886431E-01

 ANGLES BETWEEN PRINCIPAL AXES AND ORIGINAL AXES (DEGREES)
         X             Y             Z
 A     32.044483     62.796360    105.622599
 B    121.652168     49.655353    123.555085
 C     94.493531     52.422118     37.941116


 POINT   ATOM  MASS NO  NUCLEAR G FACTOR
   64   64 SI     29      -1.1106000

 TENSOR IN ORIGINAL CARTESIAN AXES
 XX -2.611590E-03 YY  4.516065E-03 ZZ -1.904475E-03 XY  4.188636E-03 XZ  5.571591E-03 YZ -1.058977E-02

 TENSOR IN PRINCIPAL AXIS SYSTEM
 AA -1.401900E-02 BB  1.237162E-02 CC  1.647381E-03

 PRINCIPAL AXES
         X             Y             Z
 A  5.214043E-01 -5.090876E-01 -6.848119E-01
 B  3.496836E-03  8.038041E-01 -5.948838E-01
 C  8.533026E-01  3.077803E-01  4.208872E-01

 ANGLES BETWEEN PRINCIPAL AXES AND ORIGINAL AXES (DEGREES)
         X             Y             Z
 A     58.573501    120.603075    133.220815
 B     89.799646     36.505078    126.504346
 C     31.427286     72.074489     65.109390


 POINT   ATOM  MASS NO  NUCLEAR G FACTOR
   65   65 SI     29      -1.1106000

 TENSOR IN ORIGINAL CARTESIAN AXES
 XX -9.525558E-04 YY  6.963763E-03 ZZ -6.011207E-03 XY -6.329446E-04 XZ  2.291232E-03 YZ -2.238565E-03

 TENSOR IN PRINCIPAL AXIS SYSTEM
 AA -3.186145E-04 BB  7.463647E-03 CC -7.145033E-03

 PRINCIPAL AXES
         X             Y             Z
 A  9.352376E-01  1.757524E-01  3.073136E-01
 B -1.231679E-01  9.753706E-01 -1.829806E-01
 C -3.319039E-01  1.332791E-01  9.338503E-01

 ANGLES BETWEEN PRINCIPAL AXES AND ORIGINAL AXES (DEGREES)
         X             Y             Z
 A     20.733428     79.877555     72.102590
 B     97.074969     12.742660    100.543417
 C    109.384376     82.340879     20.956803


 POINT   ATOM  MASS NO  NUCLEAR G FACTOR
   66   66 SI     29      -1.1106000

 TENSOR IN ORIGINAL CARTESIAN AXES
 XX -2.936707E-04 YY -3.946169E-03 ZZ  4.239840E-03 XY  4.139496E-03 XZ -6.339402E-03 YZ -6.018717E-03

 TENSOR IN PRINCIPAL AXIS SYSTEM
 AA -4.757255E-03 BB -7.285334E-03 CC  1.204259E-02

 PRINCIPAL AXES
         X             Y             Z
 A  8.252922E-01 -2.600846E-02  5.641067E-01
 B -2.150400E-01  9.092020E-01  3.565243E-01
 C -5.221596E-01 -4.155422E-01  7.447644E-01

 ANGLES BETWEEN PRINCIPAL AXES AND ORIGINAL AXES (DEGREES)
         X             Y             Z
 A     34.381875     91.490343     55.659718
 B    102.417872     24.604696     69.113107
 C    121.477224    114.553465     41.861131


 POINT   ATOM  MASS NO  NUCLEAR G FACTOR
   67   67 SI     29      -1.1106000

 TENSOR IN ORIGINAL CARTESIAN AXES
 XX  2.279042E-02 YY  5.004298E-04 ZZ -2.329085E-02 XY -4.048936E-02 XZ  2.676449E-03 YZ -3.258429E-03

 TENSOR IN PRINCIPAL AXIS SYSTEM
 AA  5.385897E-02 BB -3.048428E-02 CC -2.337470E-02

 PRINCIPAL AXES
         X             Y             Z
 A  7.939263E-01 -6.056888E-01  5.312387E-02
 B  5.949710E-01  7.919244E-01  1.373511E-01
 C -1.252621E-01 -7.743945E-02  9.890968E-01

 ANGLES BETWEEN PRINCIPAL AXES AND ORIGINAL AXES (DEGREES)
         X             Y             Z
 A     37.446042    127.278422     86.954793
 B     53.489437     37.634286     82.105408
 C     97.195891     94.441401      8.468556


 POINT   ATOM  MASS NO  NUCLEAR G FACTOR
   68   68 SI     29      -1.1106000

 TENSOR IN ORIGINAL CARTESIAN AXES
 XX -3.682078E-03 YY  6.838499E-03 ZZ -3.156420E-03 XY -2.504356E-02 XZ  3.707712E-02 YZ -3.089394E-02

 TENSOR IN PRINCIPAL AXIS SYSTEM
 AA -2.099118E-02 BB  6.208046E-02 CC -4.108929E-02

 PRINCIPAL AXES
         X             Y             Z
 A  5.238128E-01  7.990548E-01  2.951806E-01
 B -5.559931E-01  5.832419E-01 -5.921998E-01
 C -6.453617E-01  1.460835E-01  7.497785E-01

 ANGLES BETWEEN PRINCIPAL AXES AND ORIGINAL AXES (DEGREES)
         X             Y             Z
 A     58.411641     36.960066     72.831632
 B    123.779145     54.321115    126.313265
 C    130.192802     81.599976     41.428802


 POINT   ATOM  MASS NO  NUCLEAR G FACTOR
   69   69 SI     29      -1.1106000

 TENSOR IN ORIGINAL CARTESIAN AXES
 XX -4.561622E-03 YY -6.310857E-03 ZZ  1.087248E-02 XY  1.733327E-04 XZ -6.305551E-03 YZ -1.898074E-03

 TENSOR IN PRINCIPAL AXIS SYSTEM
 AA -7.146909E-03 BB -6.148018E-03 CC  1.329493E-02

 PRINCIPAL AXES
         X             Y             Z
 A  7.492382E-01  5.781524E-01  3.230818E-01
 B -5.728959E-01  8.105197E-01 -1.218530E-01
 C -3.323137E-01 -9.379532E-02  9.384935E-01

 ANGLES BETWEEN PRINCIPAL AXES AND ORIGINAL AXES (DEGREES)
         X             Y             Z
 A     41.475566     54.679300     71.150599
 B    124.952410     35.853261     96.999054
 C    109.409270     95.381987     20.199924


 POINT   ATOM  MASS NO  NUCLEAR G FACTOR
   70   70 SI     29      -1.1106000

 TENSOR IN ORIGINAL CARTESIAN AXES
 XX -5.368184E-03 YY  7.395356E-03 ZZ -2.027173E-03 XY  1.012187E-02 XZ -1.030648E-02 YZ -1.476666E-02

 TENSOR IN PRINCIPAL AXIS SYSTEM
 AA -1.030181E-02 BB  2.492320E-02 CC -1.462139E-02

 PRINCIPAL AXES
         X             Y             Z
 A  6.860578E-01 -6.556036E-01 -3.154498E-01
 B  4.272949E-01  7.140079E-01 -5.546276E-01
 C  5.888495E-01  2.457165E-01  7.699868E-01

 ANGLES BETWEEN PRINCIPAL AXES AND ORIGINAL AXES (DEGREES)
         X             Y             Z
 A     46.681146    130.965434    108.387973
 B     64.703992     44.438046    123.685069
 C     53.924589     75.775820     39.647300


 POINT   ATOM  MASS NO  NUCLEAR G FACTOR
   71   71 SI     29      -1.1106000

 TENSOR IN ORIGINAL CARTESIAN AXES
 XX  3.290817E-03 YY  1.687340E-03 ZZ -4.978157E-03 XY -2.004164E-03 XZ  1.532177E-04 YZ -1.929552E-03

 TENSOR IN PRINCIPAL AXIS SYSTEM
 AA  4.805191E-03 BB  7.079090E-04 CC -5.513100E-03

 PRINCIPAL AXES
         X             Y             Z
 A  7.958873E-01 -5.915145E-01  1.291280E-01
 B  6.037873E-01  7.596755E-01 -2.415244E-01
 C  4.476980E-02  2.701920E-01  9.617650E-01

 ANGLES BETWEEN PRINCIPAL AXES AND ORIGINAL AXES (DEGREES)
         X             Y             Z
 A     37.260860    126.264557     82.580795
 B     52.858371     40.564402    103.976527
 C     87.434022     74.324308     15.895041


 POINT   ATOM  MASS NO  NUCLEAR G FACTOR
   72   72 SI     29      -1.1106000

 TENSOR IN ORIGINAL CARTESIAN AXES
 XX  6.514513E-03 YY -3.505055E-03 ZZ -3.009458E-03 XY -3.203483E-02 XZ  2.306561E-02 YZ  3.687827E-03

 TENSOR IN PRINCIPAL AXIS SYSTEM
 AA  3.988472E-02 BB -4.020687E-02 CC  3.221471E-04

 PRINCIPAL AXES
         X             Y             Z
 A  7.635976E-01 -5.327609E-01  3.648074E-01
 B  6.452821E-01  6.095056E-01 -4.605583E-01
 C  2.301526E-02  5.870849E-01  8.091981E-01

 ANGLES BETWEEN PRINCIPAL AXES AND ORIGINAL AXES (DEGREES)
         X             Y             Z
 A     40.217607    122.192188     68.604267
 B     49.813173     52.446235    117.423139
 C     88.681206     54.049583     35.982341


 POINT   ATOM  MASS NO  NUCLEAR G FACTOR
   73   73 SI     29      -1.1106000

 TENSOR IN ORIGINAL CARTESIAN AXES
 XX -9.199463E-03 YY -1.025486E-02 ZZ  1.945432E-02 XY -1.083021E-02 XZ -2.273832E-03 YZ -1.560059E-02

 TENSOR IN PRINCIPAL AXIS SYSTEM
 AA -1.664156E-03 BB -2.462174E-02 CC  2.628589E-02

 PRINCIPAL AXES
         X             Y             Z
 A  8.136516E-01 -5.060232E-01 -2.862022E-01
 B  5.775613E-01  7.597367E-01  2.987023E-01
 C  6.628801E-02 -4.083389E-01  9.104204E-01

 ANGLES BETWEEN PRINCIPAL AXES AND ORIGINAL AXES (DEGREES)
         X             Y             Z
 A     35.545752    120.399298    106.630721
 B     54.720800     40.559007     72.620324
 C     86.199190    114.100528     24.436491


 POINT   ATOM  MASS NO  NUCLEAR G FACTOR
   74   74 SI     29      -1.1106000

 TENSOR IN ORIGINAL CARTESIAN AXES
 XX -3.390761E-02 YY  4.089817E-02 ZZ -6.990551E-03 XY -1.454377E-02 XZ  3.739850E-02 YZ  3.946847E-03

 TENSOR IN PRINCIPAL AXIS SYSTEM
 AA -6.214964E-02 BB  4.389824E-02 CC  1.825140E-02

 PRINCIPAL AXES
         X             Y             Z
 A  8.153614E-01  1.366252E-01 -5.626005E-01
 B -2.245117E-01  9.703307E-01 -8.973787E-02
 C  5.336481E-01  1.994792E-01  8.218442E-01

 ANGLES BETWEEN PRINCIPAL AXES AND ORIGINAL AXES (DEGREES)
         X             Y             Z
 A     35.376886     82.147393    124.235830
 B    102.974166     13.991721     95.148527
 C     57.747728     78.493495     34.730171


 POINT   ATOM  MASS NO  NUCLEAR G FACTOR
   75   75 SI     29      -1.1106000

 TENSOR IN ORIGINAL CARTESIAN AXES
 XX -2.405757E-02 YY -6.896801E-03 ZZ  3.095437E-02 XY  6.801482E-02 XZ  4.436342E-02 YZ -4.666284E-02

 TENSOR IN PRINCIPAL AXIS SYSTEM
 AA -1.127037E-01 BB  5.025188E-02 CC  6.245181E-02

 PRINCIPAL AXES
         X             Y             Z
 A  6.754640E-01 -6.141764E-01 -4.080878E-01
 B  7.352056E-01  5.183324E-01  4.368114E-01
 C -5.675413E-02 -5.950789E-01  8.016609E-01

 ANGLES BETWEEN PRINCIPAL AXES AND ORIGINAL AXES (DEGREES)
         X             Y             Z
 A     47.509805    127.892102    114.084771
 B     42.675406     58.779541     64.099387
 C     93.253520    126.518254     36.711004


 POINT   ATOM  MASS NO  NUCLEAR G FACTOR
   76   76 SI     29      -1.1106000

 TENSOR IN ORIGINAL CARTESIAN AXES
 XX -7.550456E-03 YY -3.208953E-02 ZZ  3.963999E-02 XY  9.027383E-02 XZ -1.369132E-01 YZ  1.710631E-01

 TENSOR IN PRINCIPAL AXIS SYSTEM
 AA  7.090385E-02 BB -2.672184E-01 CC  1.963145E-01

 PRINCIPAL AXES
         X             Y             Z
 A  7.836790E-01  6.198532E-01 -4.036479E-02
 B -5.231113E-01  6.235338E-01 -5.809992E-01
 C -3.349654E-01  4.764321E-01  8.129026E-01

 ANGLES BETWEEN PRINCIPAL AXES AND ORIGINAL AXES (DEGREES)
         X             Y             Z
 A     38.401337     51.694586     92.313360
 B    121.541185     51.425345    125.520854
 C    109.570434     61.547362     35.619503


 POINT   ATOM  MASS NO  NUCLEAR G FACTOR
   77   77 SI     29      -1.1106000

 TENSOR IN ORIGINAL CARTESIAN AXES
 XX -2.927088E-03 YY  1.374115E-03 ZZ  1.552973E-03 XY -2.947305E-03 XZ -5.222341E-03 YZ -4.061351E-03

 TENSOR IN PRINCIPAL AXIS SYSTEM
 AA -8.626483E-03 BB  2.559459E-03 CC  6.067024E-03

 PRINCIPAL AXES
         X             Y             Z
 A  7.204286E-01  4.324944E-01  5.421543E-01
 B -6.244943E-01  7.445565E-01  2.358868E-01
 C -3.016447E-01 -5.085118E-01  8.064900E-01

 ANGLES BETWEEN PRINCIPAL AXES AND ORIGINAL AXES (DEGREES)
         X             Y             Z
 A     43.910122     64.374036     57.169591
 B    128.645077     41.878983     76.356096
 C    107.556417    120.564755     36.245599


 POINT   ATOM  MASS NO  NUCLEAR G FACTOR
   78   78 SI     29      -1.1106000

 TENSOR IN ORIGINAL CARTESIAN AXES
 XX  7.441807E-03 YY -9.969781E-03 ZZ  2.527973E-03 XY -2.783834E-03 XZ -4.289690E-03 YZ  5.760106E-03

 TENSOR IN PRINCIPAL AXIS SYSTEM
 AA  1.132091E-02 BB -1.227797E-02 CC  9.570628E-04

 PRINCIPAL AXES
         X             Y             Z
 A  7.935876E-01 -2.534220E-01 -5.531691E-01
 B  5.647539E-02  9.358900E-01 -3.477362E-01
 C  6.058294E-01  2.447187E-01  7.570228E-01

 ANGLES BETWEEN PRINCIPAL AXES AND ORIGINAL AXES (DEGREES)
         X             Y             Z
 A     37.477950    104.680099    123.584702
 B     86.762476     20.627591    110.348912
 C     52.711448     75.834792     40.797570


 POINT   ATOM  MASS NO  NUCLEAR G FACTOR
   79   79 SI     29      -1.1106000

 TENSOR IN ORIGINAL CARTESIAN AXES
 XX  2.366198E-03 YY -4.571294E-03 ZZ  2.205096E-03 XY  2.512304E-03 XZ  1.274217E-03 YZ -1.742869E-03

 TENSOR IN PRINCIPAL AXIS SYSTEM
 AA  3.646904E-03 BB -5.907200E-03 CC  2.260295E-03

 PRINCIPAL AXES
         X             Y             Z
 A  8.155531E-01  1.297139E-01  5.639569E-01
 B -3.161540E-01  9.161293E-01  2.464829E-01
 C -4.846852E-01 -3.793171E-01  7.881617E-01

 ANGLES BETWEEN PRINCIPAL AXES AND ORIGINAL AXES (DEGREES)
         X             Y             Z
 A     35.357908     82.546942     55.670112
 B    108.430493     23.633388     75.730517
 C    118.991848    112.291388     37.985953


 POINT   ATOM  MASS NO  NUCLEAR G FACTOR
   80   80 SI     29      -1.1106000

 TENSOR IN ORIGINAL CARTESIAN AXES
 XX  1.135072E-02 YY -1.394831E-02 ZZ  2.597593E-03 XY -4.184237E-02 XZ -4.370765E-02 YZ -1.995312E-02

 TENSOR IN PRINCIPAL AXIS SYSTEM
 AA  5.696026E-02 BB -7.080019E-02 CC  1.383993E-02

 PRINCIPAL AXES
         X             Y             Z
 A  7.921156E-01 -3.214060E-01 -5.188940E-01
 B  5.908176E-01  6.172019E-01  5.196117E-01
 C  1.532561E-01 -7.181643E-01  6.787876E-01

 ANGLES BETWEEN PRINCIPAL AXES AND ORIGINAL AXES (DEGREES)
         X             Y             Z
 A     37.616337    108.747975    121.258093
 B     53.784954     51.887908     58.693788
 C     81.184333    135.903128     47.251024


 POINT   ATOM  MASS NO  NUCLEAR G FACTOR
   81   81 SI     29      -1.1106000

 TENSOR IN ORIGINAL CARTESIAN AXES
 XX  2.259090E-02 YY -3.032339E-02 ZZ  7.732490E-03 XY  5.023743E-02 XZ -8.346038E-03 YZ  1.762432E-02

 TENSOR IN PRINCIPAL AXIS SYSTEM
 AA  5.300381E-02 BB -6.576822E-02 CC  1.276442E-02

 PRINCIPAL AXES
         X             Y             Z
 A  8.510653E-01  5.229790E-01  4.669898E-02
 B -4.959886E-01  8.299419E-01 -2.553268E-01
 C -1.722880E-01  1.941376E-01  9.657264E-01

 ANGLES BETWEEN PRINCIPAL AXES AND ORIGINAL AXES (DEGREES)
         X             Y             Z
 A     31.672273     58.467708     87.323372
 B    119.734962     33.907231    104.792947
 C     99.920873     78.805652     15.044087


 POINT   ATOM  MASS NO  NUCLEAR G FACTOR
   82   82 SI     29      -1.1106000

 TENSOR IN ORIGINAL CARTESIAN AXES
 XX -3.003909E-03 YY -1.138146E-02 ZZ  1.438537E-02 XY -9.070144E-03 XZ -8.844974E-03 YZ -1.149464E-02

 TENSOR IN PRINCIPAL AXIS SYSTEM
 AA  2.726624E-03 BB -2.280631E-02 CC  2.007968E-02

 PRINCIPAL AXES
         X             Y             Z
 A  8.181899E-01 -5.721529E-01  5.662488E-02
 B  5.170879E-01  7.753319E-01  3.626024E-01
 C -2.513671E-01 -2.673976E-01  9.302221E-01

 ANGLES BETWEEN PRINCIPAL AXES AND ORIGINAL AXES (DEGREES)
         X             Y             Z
 A     35.096000    124.900493     86.753897
 B     58.862882     39.164867     68.739894
 C    104.558426    105.509466     21.530541


 POINT   ATOM  MASS NO  NUCLEAR G FACTOR
   83   83 SI     29      -1.1106000

 TENSOR IN ORIGINAL CARTESIAN AXES
 XX -6.532794E-04 YY  6.614346E-03 ZZ -5.961067E-03 XY -6.657184E-03 XZ  3.133123E-03 YZ  1.201361E-03

 TENSOR IN PRINCIPAL AXIS SYSTEM
 AA -1.916270E-03 BB  1.058513E-02 CC -8.668864E-03

 PRINCIPAL AXES
         X             Y             Z
 A  6.525622E-01  4.204772E-01  6.303661E-01
 B -5.166832E-01  8.554309E-01 -3.572729E-02
 C -5.542572E-01 -3.023853E-01  7.754754E-01

 ANGLES BETWEEN PRINCIPAL AXES AND ORIGINAL AXES (DEGREES)
         X             Y             Z
 A     49.264936     65.135279     50.922862
 B    121.110028     31.192628     92.047459
 C    123.659565    107.600925     39.151843


 POINT   ATOM  MASS NO  NUCLEAR G FACTOR
   84   84 SI     29      -1.1106000

 TENSOR IN ORIGINAL CARTESIAN AXES
 XX  3.948032E-04 YY -5.826385E-04 ZZ  1.878352E-04 XY  2.282658E-03 XZ  2.991608E-04 YZ -1.342094E-03

 TENSOR IN PRINCIPAL AXIS SYSTEM
 AA  2.433655E-03 BB -2.926957E-03 CC  4.933023E-04

 PRINCIPAL AXES
         X             Y             Z
 A  6.914400E-01  6.569714E-01 -3.004985E-01
 B -5.477447E-01  7.479551E-01  3.748852E-01
 C  4.710483E-01 -9.461417E-02  8.770186E-01

 ANGLES BETWEEN PRINCIPAL AXES AND ORIGINAL AXES (DEGREES)
         X             Y             Z
 A     46.255796     48.930700    107.487547
 B    123.212430     41.586453     67.982779
 C     61.897638     95.429114     28.715211


 POINT   ATOM  MASS NO  NUCLEAR G FACTOR
   85   85 SI     29      -1.1106000

 TENSOR IN ORIGINAL CARTESIAN AXES
 XX  6.171759E-03 YY -3.619896E-03 ZZ -2.551864E-03 XY  8.090986E-03 XZ  2.571646E-03 YZ -9.413359E-03

 TENSOR IN PRINCIPAL AXIS SYSTEM
 AA  1.134264E-02 BB -1.531757E-02 CC  3.974930E-03

 PRINCIPAL AXES
         X             Y             Z
 A  7.792847E-01  5.762849E-01 -2.461931E-01
 B -3.435833E-01  7.214542E-01  6.012107E-01
 C  5.240857E-01 -3.839265E-01  7.602201E-01

 ANGLES BETWEEN PRINCIPAL AXES AND ORIGINAL AXES (DEGREES)
[...]
   9    9 O     3.3184    1.8793  -19.5665  -0.60855E-02
  10   10 O     1.9921    4.2952  -15.5060   0.39496E-04
  11   11 O    -6.9612   -0.8557  -18.6704  -0.59441E-02
  12   12 O    -3.2746    1.1794  -16.5651  -0.90593E-02
  13   13 O    -1.3552   -9.2434  -14.4394   0.80274E-01
  14   14 O    10.3152    6.9412  -18.7041  -0.64860E-02
  15   15 O     5.8182    6.2748  -19.9871  -0.31405E-02
  16   16 O     6.2137   -3.7084  -14.6418  -0.13938E+00
  17   17 O    -9.3223   -5.4190  -18.3598  -0.12068E-02
  18   18 O     3.8405   -5.9209  -18.5732  -0.87212E-01
  19   19 O    -2.3747   -3.8628  -15.9015   0.45377E-01
  20   20 O     0.8686    6.5873   -2.2638  -0.84580E-02
  21   21 O     4.1311    6.4598  -11.2676  -0.11656E-02
  22   22 O     2.8812    8.5449   -6.3635  -0.21666E-02
  23   23 O     9.8217    3.5492   -7.7617  -0.72393E-03
  24   24 O    -8.1886    2.5820   -4.1079   0.13527E-02
  25   25 O    -5.2505    8.8023  -11.5523   0.17840E-02
  26   26 O    -1.6681   -3.9704   -2.2043   0.97103E-02
  27   27 O     9.4943   -6.5332   -6.1368   0.45466E-01
  28   28 O     3.1887   -7.6373  -10.1261  -0.32945E-01
  29   29 O    -8.7748   -7.0659  -11.2926  -0.15680E-03
  30   30 O    10.2978   -1.5123   -5.5488   0.30584E-01
  31   31 O    -2.6881   -0.1497  -12.0221   0.52572E-03
  32   32 O     0.8569   -4.2891  -12.4044  -0.20309E-01
  33   33 O    -8.0726   -2.3739   -9.7759   0.16745E-03
  34   34 O    -4.1285   -4.9432  -11.1017   0.61989E-03
  35   35 O    -3.0859    3.0770   -2.7268  -0.39202E-02
  36   36 O    -0.4044    7.8143  -10.2477   0.11634E-02
  37   37 O    -4.5261    4.3548   -7.2243  -0.21626E-05
  38   38 O     7.7247   -4.6306   -1.9872   0.17959E-01
  39   39 O    -8.5519   -8.0595   -2.4126   0.38952E-02
  40   40 O     0.4435    3.6213   -6.1895   0.10954E-01
  41   41 O    -6.0123    6.8241   -2.6826   0.13322E-05
  42   42 O     7.2321    1.7583   -3.8135   0.94142E-02
  43   43 O     8.9025   -0.2133  -11.8226  -0.35525E-02
  44   44 O   -10.1017    7.3177  -11.2851   0.37467E-03
  45   45 O     1.7513    1.7318   -1.7586   0.51185E-01
  46   46 O     4.8229   -2.7427   -9.8801   0.73205E-02
  47   47 O    -8.9863    8.2149   -6.5166   0.15644E-02
  48   48 O    -6.6160   -6.4756   -6.9110   0.63939E-03
  49   49 O    -2.0711   -9.4484   -5.1713  -0.10352E-02
  50   50 O     7.3009    7.7901   -7.6034  -0.13774E-03
  51   51 O     1.6985   -7.7924   -2.0542  -0.44412E-03
  52   52 O     3.2828   -2.8897   -1.8083   0.64836E-03
  53   53 O     2.3580   -5.2252   -6.0679   0.42823E-02
  54   54 O    -0.3966   -2.7221   -8.4957   0.18468E-03
  55   55 O    -3.1911    4.9699  -13.5715   0.57365E-03
  56   56 O     4.6260    1.2804  -13.0267  -0.30222E-02
  57   57 SI    1.1406    0.5729    1.2270   0.30499E+00
  58   58 SI    6.9453    5.8370    0.5068  -0.41084E-02
  59   59 SI    4.4195    8.0382    3.4113  -0.24680E-03
  60   60 SI    9.4308    3.4958    3.4685   0.20405E-02
  61   61 SI    1.5783    5.8188    6.0305   0.50917E-01
  62   62 SI    6.7983    1.1329    6.2049   0.19420E-01
  63   63 SI    4.0370    3.4553    8.8947  -0.76547E-02
  64   64 SI    9.4045    8.3369    8.8084   0.35064E-02
  65   65 SI    2.6602   -7.7057    1.3842   0.98241E-03
  66   66 SI    5.7709   -4.4424    0.5311  -0.10539E-01
  67   67 SI    4.3233   -1.3789    3.5727   0.46890E-02
  68   68 SI    9.3160   -6.1176    3.1795   0.28317E-01
  69   69 SI    1.5400   -3.6235    6.3019   0.22605E-01
  70   70 SI    6.8105   -8.5470    6.1158  -0.10495E-01
  71   71 SI    4.0755   -6.2173    8.8536  -0.80728E-03
  72   72 SI    9.4247   -1.5112    8.5438  -0.14470E-02
  73   73 SI   -9.4704    0.2983    1.0895   0.78309E-03
  74   74 SI   -4.1749    8.3940   -0.6628  -0.76953E-02
  75   75 SI   -6.3467    8.2643    3.4042  -0.34889E-01
  76   76 SI   -1.2320    3.5381    3.4999  -0.60904E-01
  77   77 SI   -8.9827    5.9269    6.1164  -0.14400E-02
  78   78 SI   -3.6292    0.9306    6.0903   0.50334E-02
  79   79 SI   -6.3237    3.3485    8.6390  -0.21223E-02
  80   80 SI   -1.0176    8.2226    8.6837   0.21634E-02
  81   81 SI   -7.9724   -7.4300    0.6348   0.12240E-01
  82   82 SI   -3.5926   -4.4790    0.4579   0.28490E-02
  83   83 SI   -5.9090   -1.3633    3.0563   0.61606E-02
  84   84 SI   -0.9318   -6.1404    3.5903   0.35792E-02
  85   85 SI   -8.8966   -3.7477    5.7260  -0.43458E-02
  86   86 SI   -3.7287   -8.5920    6.1056   0.73075E-02
  87   87 SI   -6.3770   -6.0404    8.7269  -0.38527E-02
  88   88 SI   -1.0965   -1.2735    9.0009   0.89161E-03
  89   89 SI    1.3879    1.1424   11.7652  -0.48322E-02
  90   90 SI    6.6630    5.9938   11.3737   0.11582E-01
  91   91 SI    1.4261   -8.5958   11.5362  -0.51254E-01
  92   92 SI    6.7094   -3.7073   11.3486  -0.41660E-01
  93   93 SI   -9.0288    0.8695   11.1592   0.44576E-02
  94   94 SI   -3.5730    5.7035   11.2056  -0.22111E-02
  95   95 SI   -9.0019   -8.4483   11.4734  -0.25596E-02
  96   96 SI   -3.7887   -3.6794   11.5358   0.32347E-02
  97   97 SI    4.0485    8.2291   14.1993   0.16899E-01
  98   98 SI    9.2959    3.3354   13.6438  -0.31360E-06
  99   99 SI    1.3361    6.1168   17.0603   0.75736E-01
 100  100 SI    6.7350    1.3376   16.6144  -0.46546E-02
 101  101 SI    4.3838    3.9744   19.3672  -0.28060E-02
 102  102 SI   10.3822    8.2885   18.2602  -0.57386E-01
 103  103 SI    4.1249   -1.3865   14.2052  -0.57304E-02
 104  104 SI    9.1441   -6.1225   14.1301  -0.36869E-02
 105  105 SI    1.6593   -4.0670   16.6894  -0.17936E+00
 106  106 SI    6.5997   -8.6193   16.9428  -0.56598E-01
 107  107 SI    3.1032   -7.1198   19.5574  -0.32213E-01
 108  108 SI    9.9057   -0.4167   19.0188   0.55562E-04
 109  109 SI   -6.1141    8.1921   13.7313   0.39545E-02
 110  110 SI   -1.2948    3.6138   14.4798   0.32788E-02
 111  111 SI   -8.4359    5.1691   15.9299  -0.54596E-02
 112  112 SI   -5.0021    2.0772   16.5552  -0.78524E-02
 113  113 SI   -7.1939    1.6476   20.2858   0.66920E-04
 114  114 SI   -0.3726    9.1849   19.8952   0.26522E+00
 115  115 SI   -6.5292   -1.3054   14.1063   0.17313E-02
 116  116 SI   -1.2785   -6.1731   14.1780   0.14642E-01
 117  117 SI   -9.1230   -3.8260   16.7329  -0.99929E-03
 118  118 SI   -3.5469   -8.9482   16.7898  -0.49430E-02
 119  119 SI   -7.5251   -7.7814   18.3240   0.20619E-02
 120  120 SI    1.7573    1.3630  -16.9257  -0.66563E-02
 121  121 SI   -4.1085    1.9761  -13.7157  -0.31891E-02
 122  122 SI    4.4287    4.3789  -13.5950  -0.38224E-03
 123  123 SI   -7.4051   -7.8062  -18.2394  -0.38515E-02
 124  124 SI    5.1245   -6.5151  -15.7979  -0.15249E+01
 125  125 SI   -1.6796   -6.9678  -16.5843   0.91487E+00
 126  126 SI   -8.3479    5.5834  -16.6666  -0.68428E-03
 127  127 SI   -9.3974   -2.4924  -17.6009  -0.39577E-03
 128  128 SI   -2.4073   -1.5024  -18.1260  -0.12875E+00
 129  129 SI    7.3866    7.2684  -17.5202  -0.24559E-01
 130  130 SI    0.5337    9.1109   -4.0632  -0.17529E-03
 131  131 SI   -9.0686   -0.7902  -12.2115  -0.14926E-03
 132  132 SI   10.0542    1.5789   -5.2667  -0.41615E-03
 133  133 SI    4.7142   -0.1089   -4.5879   0.32687E+00
 134  134 SI    8.2390   -3.8610   -4.9704   0.51983E+00
 135  135 SI   -6.8411   -5.2064   -9.7259  -0.87057E-04
 136  136 SI    2.5409    8.6765   -9.6912  -0.12414E-03
 137  137 SI   -5.5560    4.2518   -4.3062  -0.11424E-03
 138  138 SI   -0.1095    3.7808   -3.1698  -0.17955E-02
 139  139 SI   -2.5130    7.8560  -12.5530   0.32984E-01
 140  140 SI   -1.6771    3.5196   -8.5433   0.11909E-02
 141  141 SI   10.0594    6.6038   -8.3596  -0.22958E-03
 142  142 SI    6.1499    9.0201   -4.9661   0.16103E-02
 143  143 SI    6.0969   -1.4632  -12.3950  -0.16821E-01
 144  144 SI    2.2103   -4.5313   -9.3461  -0.25989E-03
 145  145 SI   -1.7388   -2.9727  -11.3000  -0.33357E-02
 146  146 SI   -8.1045    9.4292  -12.4553   0.10706E-06
 147  147 SI    1.1810   -4.7204   -3.2713  -0.17081E-02
 148  148 SI   -8.8072   -8.0957   -5.4690   0.14319E-01
 *******************************************************************************
 HYPERFINE COUPLING CONSTANTS (AN)
 *******************************************************************************
 POINT  ATOM  MASS N0    NUCLEAR      AN (MT)       AN (MHZ)    AN (CM**(-1))
                        G FACTOR
   1    1 O      17   -0.7575220    0.92506E-02   0.25925E+00   0.86476E-05
   2    2 O      17   -0.7575220   -0.10690E-01  -0.29959E+00  -0.99934E-05
   3    3 O      17   -0.7575220    0.94536E-02   0.26494E+00   0.88373E-05
   4    4 O      17   -0.7575220    0.34964E+01   0.97986E+02   0.32685E-02
   5    5 O      17   -0.7575220    0.96690E-02   0.27097E+00   0.90387E-05
   6    6 O      17   -0.7575220   -0.54335E+00  -0.15227E+02  -0.50793E-03
   7    7 O      17   -0.7575220    0.41657E-02   0.11674E+00   0.38941E-05
   8    8 O      17   -0.7575220    0.52046E-01   0.14586E+01   0.48654E-04
   9    9 O      17   -0.7575220    0.13163E+00   0.36890E+01   0.12305E-03
  10   10 O      17   -0.7575220   -0.85433E-03  -0.23943E-01  -0.79864E-06
  11   11 O      17   -0.7575220    0.12857E+00   0.36033E+01   0.12019E-03
  12   12 O      17   -0.7575220    0.19596E+00   0.54917E+01   0.18318E-03
  13   13 O      17   -0.7575220   -0.17364E+01  -0.48662E+02  -0.16232E-02
  14   14 O      17   -0.7575220    0.14030E+00   0.39318E+01   0.13115E-03
  15   15 O      17   -0.7575220    0.67931E-01   0.19038E+01   0.63503E-04
  16   16 O      17   -0.7575220    0.30148E+01   0.84490E+02   0.28183E-02
  17   17 O      17   -0.7575220    0.26103E-01   0.73154E+00   0.24401E-04
  18   18 O      17   -0.7575220    0.18864E+01   0.52868E+02   0.17635E-02
  19   19 O      17   -0.7575220   -0.98154E+00  -0.27508E+02  -0.91755E-03
  20   20 O      17   -0.7575220    0.18295E+00   0.51272E+01   0.17103E-03
  21   21 O      17   -0.7575220    0.25212E-01   0.70657E+00   0.23569E-04
  22   22 O      17   -0.7575220    0.46864E-01   0.13134E+01   0.43809E-04
  23   23 O      17   -0.7575220    0.15659E-01   0.43885E+00   0.14638E-04
  24   24 O      17   -0.7575220   -0.29260E-01  -0.82000E+00  -0.27352E-04
  25   25 O      17   -0.7575220   -0.38590E-01  -0.10815E+01  -0.36074E-04
  26   26 O      17   -0.7575220   -0.21004E+00  -0.58863E+01  -0.19635E-03
  27   27 O      17   -0.7575220   -0.98345E+00  -0.27561E+02  -0.91934E-03
  28   28 O      17   -0.7575220    0.71262E+00   0.19971E+02   0.66616E-03
  29   29 O      17   -0.7575220    0.33917E-02   0.95052E-01   0.31706E-05
  30   30 O      17   -0.7575220   -0.66156E+00  -0.18540E+02  -0.61843E-03
  31   31 O      17   -0.7575220   -0.11372E-01  -0.31869E+00  -0.10630E-04
  32   32 O      17   -0.7575220    0.43929E+00   0.12311E+02   0.41065E-03
  33   33 O      17   -0.7575220   -0.36220E-02  -0.10151E+00  -0.33859E-05
  34   34 O      17   -0.7575220   -0.13409E-01  -0.37578E+00  -0.12535E-04
  35   35 O      17   -0.7575220    0.84796E-01   0.23764E+01   0.79268E-04
  36   36 O      17   -0.7575220   -0.25166E-01  -0.70528E+00  -0.23526E-04
  37   37 O      17   -0.7575220    0.46778E-04   0.13110E-02   0.43729E-07
  38   38 O      17   -0.7575220   -0.38847E+00  -0.10887E+02  -0.36315E-03
  39   39 O      17   -0.7575220   -0.84257E-01  -0.23613E+01  -0.78764E-04
  40   40 O      17   -0.7575220   -0.23693E+00  -0.66400E+01  -0.22149E-03
  41   41 O      17   -0.7575220   -0.28816E-04  -0.80757E-03  -0.26938E-07
  42   42 O      17   -0.7575220   -0.20363E+00  -0.57068E+01  -0.19036E-03
  43   43 O      17   -0.7575220    0.76844E-01   0.21535E+01   0.71834E-04
  44   44 O      17   -0.7575220   -0.81044E-02  -0.22713E+00  -0.75761E-05
  45   45 O      17   -0.7575220   -0.11072E+01  -0.31028E+02  -0.10350E-02
  46   46 O      17   -0.7575220   -0.15835E+00  -0.44377E+01  -0.14802E-03
  47   47 O      17   -0.7575220   -0.33838E-01  -0.94832E+00  -0.31633E-04
  48   48 O      17   -0.7575220   -0.13830E-01  -0.38760E+00  -0.12929E-04
  49   49 O      17   -0.7575220    0.22392E-01   0.62754E+00   0.20932E-04
  50   50 O      17   -0.7575220    0.29794E-02   0.83496E-01   0.27851E-05
  51   51 O      17   -0.7575220    0.96066E-02   0.26922E+00   0.89804E-05
  52   52 O      17   -0.7575220   -0.14024E-01  -0.39303E+00  -0.13110E-04
  53   53 O      17   -0.7575220   -0.92628E-01  -0.25959E+01  -0.86590E-04
  54   54 O      17   -0.7575220   -0.39948E-02  -0.11196E+00  -0.37344E-05
  55   55 O      17   -0.7575220   -0.12408E-01  -0.34774E+00  -0.11600E-04
  56   56 O      17   -0.7575220    0.65372E-01   0.18321E+01   0.61111E-04
  57   57 SI     29   -1.1106000   -0.96721E+01  -0.27106E+03  -0.90416E-02
  58   58 SI     29   -1.1106000    0.13029E+00   0.36513E+01   0.12180E-03
  59   59 SI     29   -1.1106000    0.78266E-02   0.21934E+00   0.73164E-05
  60   60 SI     29   -1.1106000   -0.64708E-01  -0.18134E+01  -0.60490E-04
  61   61 SI     29   -1.1106000   -0.16147E+01  -0.45252E+02  -0.15095E-02
  62   62 SI     29   -1.1106000   -0.61584E+00  -0.17259E+02  -0.57570E-03
  63   63 SI     29   -1.1106000    0.24275E+00   0.68031E+01   0.22693E-03
  64   64 SI     29   -1.1106000   -0.11120E+00  -0.31163E+01  -0.10395E-03
  65   65 SI     29   -1.1106000   -0.31155E-01  -0.87311E+00  -0.29124E-04
  66   66 SI     29   -1.1106000    0.33422E+00   0.93665E+01   0.31243E-03
  67   67 SI     29   -1.1106000   -0.14870E+00  -0.41673E+01  -0.13901E-03
  68   68 SI     29   -1.1106000   -0.89802E+00  -0.25167E+02  -0.83948E-03
  69   69 SI     29   -1.1106000   -0.71686E+00  -0.20090E+02  -0.67013E-03
  70   70 SI     29   -1.1106000    0.33283E+00   0.93276E+01   0.31113E-03
  71   71 SI     29   -1.1106000    0.25601E-01   0.71747E+00   0.23932E-04
  72   72 SI     29   -1.1106000    0.45888E-01   0.12860E+01   0.42897E-04
  73   73 SI     29   -1.1106000   -0.24834E-01  -0.69596E+00  -0.23215E-04
  74   74 SI     29   -1.1106000    0.24404E+00   0.68392E+01   0.22813E-03
  75   75 SI     29   -1.1106000    0.11064E+01   0.31008E+02   0.10343E-02
  76   76 SI     29   -1.1106000    0.19314E+01   0.54128E+02   0.18055E-02
  77   77 SI     29   -1.1106000    0.45667E-01   0.12798E+01   0.42690E-04
  78   78 SI     29   -1.1106000   -0.15962E+00  -0.44734E+01  -0.14922E-03
  79   79 SI     29   -1.1106000    0.67303E-01   0.18862E+01   0.62916E-04
  80   80 SI     29   -1.1106000   -0.68607E-01  -0.19227E+01  -0.64135E-04
  81   81 SI     29   -1.1106000   -0.38815E+00  -0.10878E+02  -0.36285E-03
  82   82 SI     29   -1.1106000   -0.90350E-01  -0.25321E+01  -0.84460E-04
  83   83 SI     29   -1.1106000   -0.19537E+00  -0.54752E+01  -0.18263E-03
  84   84 SI     29   -1.1106000   -0.11351E+00  -0.31810E+01  -0.10611E-03
  85   85 SI     29   -1.1106000    0.13782E+00   0.38623E+01   0.12883E-03
  86   86 SI     29   -1.1106000   -0.23174E+00  -0.64945E+01  -0.21663E-03
  87   87 SI     29   -1.1106000    0.12218E+00   0.34241E+01   0.11422E-03
  88   88 SI     29   -1.1106000   -0.28275E-01  -0.79242E+00  -0.26432E-04
  89   89 SI     29   -1.1106000    0.15324E+00   0.42945E+01   0.14325E-03
  90   90 SI     29   -1.1106000   -0.36731E+00  -0.10294E+02  -0.34336E-03
  91   91 SI     29   -1.1106000    0.16254E+01   0.45552E+02   0.15194E-02
  92   92 SI     29   -1.1106000    0.13211E+01   0.37025E+02   0.12350E-02
  93   93 SI     29   -1.1106000   -0.14136E+00  -0.39616E+01  -0.13215E-03
  94   94 SI     29   -1.1106000    0.70120E-01   0.19651E+01   0.65549E-04
  95   95 SI     29   -1.1106000    0.81173E-01   0.22749E+01   0.75881E-04
  96   96 SI     29   -1.1106000   -0.10258E+00  -0.28748E+01  -0.95894E-04
  97   97 SI     29   -1.1106000   -0.53592E+00  -0.15019E+02  -0.50098E-03
  98   98 SI     29   -1.1106000    0.99451E-05   0.27871E-03   0.92968E-08
  99   99 SI     29   -1.1106000   -0.24018E+01  -0.67310E+02  -0.22452E-02
 100  100 SI     29   -1.1106000    0.14761E+00   0.41367E+01   0.13799E-03
 101  101 SI     29   -1.1106000    0.88986E-01   0.24938E+01   0.83185E-04
 102  102 SI     29   -1.1106000    0.18199E+01   0.51001E+02   0.17012E-02
 103  103 SI     29   -1.1106000    0.18173E+00   0.50929E+01   0.16988E-03
 104  104 SI     29   -1.1106000    0.11692E+00   0.32767E+01   0.10930E-03
 105  105 SI     29   -1.1106000    0.56879E+01   0.15940E+03   0.53171E-02
 106  106 SI     29   -1.1106000    0.17949E+01   0.50301E+02   0.16779E-02
 107  107 SI     29   -1.1106000    0.10216E+01   0.28629E+02   0.95497E-03
 108  108 SI     29   -1.1106000   -0.17620E-02  -0.49381E-01  -0.16472E-05
 109  109 SI     29   -1.1106000   -0.12541E+00  -0.35145E+01  -0.11723E-03
 110  110 SI     29   -1.1106000   -0.10398E+00  -0.29140E+01  -0.97200E-04
 111  111 SI     29   -1.1106000    0.17314E+00   0.48522E+01   0.16185E-03
 112  112 SI     29   -1.1106000    0.24902E+00   0.69788E+01   0.23279E-03
 113  113 SI     29   -1.1106000   -0.21222E-02  -0.59474E-01  -0.19839E-05
 114  114 SI     29   -1.1106000   -0.84107E+01  -0.23571E+03  -0.78624E-02
 115  115 SI     29   -1.1106000   -0.54905E-01  -0.15387E+01  -0.51326E-04
 116  116 SI     29   -1.1106000   -0.46434E+00  -0.13013E+02  -0.43407E-03
 117  117 SI     29   -1.1106000    0.31690E-01   0.88811E+00   0.29624E-04
 118  118 SI     29   -1.1106000    0.15676E+00   0.43931E+01   0.14654E-03
 119  119 SI     29   -1.1106000   -0.65390E-01  -0.18325E+01  -0.61127E-04
 120  120 SI     29   -1.1106000    0.21109E+00   0.59157E+01   0.19733E-03
 121  121 SI     29   -1.1106000    0.10114E+00   0.28343E+01   0.94542E-04
 122  122 SI     29   -1.1106000    0.12122E-01   0.33971E+00   0.11332E-04
 123  123 SI     29   -1.1106000    0.12214E+00   0.34230E+01   0.11418E-03
 124  124 SI     29   -1.1106000    0.48358E+02   0.13552E+04   0.45206E-01
 125  125 SI     29   -1.1106000   -0.29013E+02  -0.81309E+03  -0.27122E-01
 126  126 SI     29   -1.1106000    0.21700E-01   0.60815E+00   0.20286E-04
 127  127 SI     29   -1.1106000    0.12551E-01   0.35174E+00   0.11733E-04
 128  128 SI     29   -1.1106000    0.40831E+01   0.11443E+03   0.38170E-02
 129  129 SI     29   -1.1106000    0.77883E+00   0.21827E+02   0.72806E-03
 130  130 SI     29   -1.1106000    0.55590E-02   0.15579E+00   0.51966E-05
 131  131 SI     29   -1.1106000    0.47336E-02   0.13266E+00   0.44250E-05
 132  132 SI     29   -1.1106000    0.13197E-01   0.36985E+00   0.12337E-04
 133  133 SI     29   -1.1106000   -0.10366E+02  -0.29050E+03  -0.96902E-02
 134  134 SI     29   -1.1106000   -0.16485E+02  -0.46200E+03  -0.15411E-01
 135  135 SI     29   -1.1106000    0.27608E-02   0.77372E-01   0.25808E-05
 136  136 SI     29   -1.1106000    0.39368E-02   0.11033E+00   0.36802E-05
 137  137 SI     29   -1.1106000    0.36228E-02   0.10153E+00   0.33866E-05
 138  138 SI     29   -1.1106000    0.56939E-01   0.15957E+01   0.53227E-04
 139  139 SI     29   -1.1106000   -0.10460E+01  -0.29314E+02  -0.97781E-03
 140  140 SI     29   -1.1106000   -0.37768E-01  -0.10584E+01  -0.35306E-04
 141  141 SI     29   -1.1106000    0.72806E-02   0.20404E+00   0.68060E-05
 142  142 SI     29   -1.1106000   -0.51066E-01  -0.14311E+01  -0.47737E-04
 143  143 SI     29   -1.1106000    0.53342E+00   0.14949E+02   0.49865E-03
 144  144 SI     29   -1.1106000    0.82417E-02   0.23097E+00   0.77044E-05
 145  145 SI     29   -1.1106000    0.10578E+00   0.29646E+01   0.98887E-04
 146  146 SI     29   -1.1106000   -0.33951E-05  -0.95146E-04  -0.31737E-08
 147  147 SI     29   -1.1106000    0.54168E-01   0.15181E+01   0.50637E-04
 148  148 SI     29   -1.1106000   -0.45408E+00  -0.12726E+02  -0.42448E-03

  CONVERSION FACTORS 
     AN (MILLI T)        28.554470 * GN * P(SPIN) (BOHR**(-3))
     AN (MHZ)            28.024940 * AN (MILLI T) 
     AN (CM**(-1))   0.3335641E-04 * AN (MHZ) 
 TTTTTTTTTTTTTTTTTTTTTTTTTTTTTT ISOTROPIC   TELAPSE   111303.79 TCPU   111131.36
 ENDPROP   
 TTTTTTTTTTTTTTTTTTTTTTTTTTTTTT END         TELAPSE   111303.79 TCPU   111131.36
 EEEEEEEEEE TERMINATION  DATE 12 05 2015 TIME 17:51:01.0
