
         
 *******************************************************************************
 *                                                                             *
 *                                CRYSTAL09                                    *
 *                              public : 2.0                                   *
 *                      December 10th, 2012 - sequential executable            *
 *                                                                             *
 *                                                                             *
 *                                                                             *
 *                              MAIN AUTHORS                                   *
 *                                                                             *
 *    R. DOVESI(1,10), V.R. SAUNDERS(2), C. ROETTI(1,10), R. ORLANDO (1,3),    *
 *  C.M. ZICOVICH-WILSON(1,4), F. PASCALE(5), B. CIVALLERI(1,10), K. DOLL(6),  *
 *       N.M. HARRISON(2,7), I. J. BUSH(2), Ph. D'ARCO(8), M. LLUNELL(9)       *
 *                                                                             *
 * (1) THEORETICAL CHEMISTRY GROUP - UNIVERSITA' DI TORINO - TORINO (ITALY)    *
 *      http://www.crystal.unito.it                                            *
 * (2) COMPUTATIONAL SCIENCE & ENGINEERING DEPARTMENT - CCLRC DARESBURY (UK)   *
 *     http://www.cse.clrc.ac.uk/cmg/CRYSTAL/                                  *
 * (3) UNIVERSITA' DEL PIEMONTE ORIENTALE - ALESSANDRIA (ITALY)                *
 * (4) UNIVERSIDAD AUTONOMA DEL ESTADO DE MORELOS - CUERNAVACA (MEXICO)        *
 * (5) UNIVERSITE' HENRI POINCARE' - NANCY (FRANCE)                            *
 * (6) MPI FUER FESTKOERPERFORSCHUNG - STUTTGART (GERMANY)                     *
 * (7) IMPERIAL COLLEGE - LONDON (UK)                                          *
 * (8) UNIVERSITE' PIERRE ET MARIE CURIE - PARIS (FRANCE)                      *
 * (9) UNIVERSIDAD DE BARCELONA - BARCELONA (SPAIN)                            *
 *(10) NIS - NANOSTRUCTURED INTERFACES AND SURFACES - TORINO (ITALY)           *
 *     http://www.crystal.unito.it                                             *
 *******************************************************************************
 EEEEEEEEEE STARTING  DATE 11 05 2015 TIME 10:58:01.8

 *******************************************************************************
 Created with astools                                                            
 CRYSTAL - PROPERTIES - TYPE OF CALCULATION :  UNRESTRICTED OPEN SHELL
 *******************************************************************************
 SPIN POLARIZED SYSTEM: SUMMED SPIN DENSITY    0.00000000

 KOHN-SHAM HAMILTONIAN

 (EXCHANGE)[CORRELATION] FUNCTIONAL:(BECKE)[LEE-YANG-PARR]

 NON-LOCAL WEIGHTING FACTOR (EXCHANGE) =           0.9000
 NON-LOCAL WEIGHTING FACTOR [CORRELATION] =        0.8100

 HYBRID EXCHANGE - PERCENTAGE OF FOCK EXCHANGE     5.0000

 SPIN POLARIZED DFT SELECTED

 DIRECT LATTICE VECTOR COMPONENTS (ANGSTROM)
        10.48610    0.00000    0.00000
         0.00000   10.85380    0.00000
         0.00000    0.00000   22.52820

 LATTICE PARAMETERS  (ANGSTROM AND DEGREES) - PRIMITIVE CELL
       A          B          C         ALPHA      BETA     GAMMA        VOLUME
   10.48610   10.85380   22.52820     47.6259   47.6259   47.6259    2564.02528
 *******************************************************************************
 N. OF ATOMS PER CELL      156  COULOMB OVERLAP TOL         (T1) 10** -8
 NUMBER OF SHELLS          808  COULOMB PENETRATION TOL     (T2) 10** -8
 NUMBER OF AO             2856  EXCHANGE OVERLAP TOL        (T3) 10** -8
 N. OF ELECTRONS PER CELL 1800  EXCHANGE PSEUDO OVP (F(G))  (T4) 10** -8
 CORE ELECTRONS PER CELL  1048  EXCHANGE PSEUDO OVP (P(G))  (T5) 10**-16
 N. OF SYMMETRY OPERATORS    1  POLE ORDER IN MONO ZONE                4
 *******************************************************************************
   ATOM N.AT.  SHELL    X(A)      Y(A)      Z(A)      EXAD       N.ELECT.
 *******************************************************************************
    1    8 O     4     1.127    -0.107     1.874   1.900E-01       8.639
    2    8 O     4     0.814    -4.655     1.093   1.900E-01       8.780
    3    8 O     4    -4.290     0.462     1.581   1.900E-01       8.713
    4    8 O     4    -4.759    -4.617     1.815   1.900E-01       8.602
    5    8 O     4    -5.236    -2.128     0.695   1.900E-01       8.594
    6    8 O     4    -4.921     4.249     0.147   1.900E-01       8.769
    7    8 O     4    -2.049    -3.921    -0.027   1.900E-01       8.654
    8    8 O     4     2.849    -1.062     0.088   1.900E-01       8.623
    9    8 O     4     1.739     4.688   -10.324   1.900E-01       8.565
   10    8 O     4     1.933    -0.531    -9.967   1.900E-01       8.687
   11    8 O     4    -4.250     4.584   -10.706   1.900E-01       8.706
   12    8 O     4    -3.360    -0.557   -10.212   1.900E-01       8.683
   13    8 O     4    -1.361     4.246   -10.454   1.900E-01       8.513
   14    8 O     4     5.095     3.242    -7.345   1.900E-01       8.692
   15    8 O     4    -3.156     5.273    -8.810   1.900E-01       8.760
   16    8 O     4    -4.944    -3.628    -9.246   1.900E-01       8.540
   17    8 O     4     3.728     3.089    -9.522   1.900E-01       8.574
   18    8 O     4    -3.194     2.286   -10.583   1.900E-01       8.547
   19    8 O     4    -0.038     1.424    -9.390   1.900E-01       8.729
   20    8 O     4     1.269    -3.767    -9.113   1.900E-01       8.627
   21    8 O     4     0.060    -2.076    -7.499   1.900E-01       8.730
   22    8 O     4    -2.236    -2.462    -8.882   1.900E-01       8.766
   23    8 O     4    -5.056    -1.071    -8.263   1.900E-01       8.664
   24    8 O     4     3.386     1.134    -7.881   1.900E-01       8.681
   25    8 O     4     2.544    -1.491    -3.884   1.900E-01       8.650
   26    8 O     4     2.477     3.726    -7.190   1.900E-01       8.727
   27    8 O     4     1.872     3.013    -2.684   1.900E-01       8.648
   28    8 O     4     1.650    -4.357    -6.609   1.900E-01       8.652
   29    8 O     4     3.498     0.931    -3.441   1.900E-01       8.608
   30    8 O     4    -3.542     1.718    -5.728   1.900E-01       8.587
   31    8 O     4     1.744    -3.940    -1.374   1.900E-01       8.648
   32    8 O     4    -1.808     1.065    -3.835   1.900E-01       8.592
   33    8 O     4     4.535     5.032    -2.051   1.900E-01       8.717
   34    8 O     4     2.691    -5.070    -3.756   1.900E-01       8.657
   35    8 O     4     0.079    -1.242    -5.027   1.900E-01       8.644
   36    8 O     4    -0.446    -2.137     1.244   1.900E-01       8.616
   37    8 O     4     1.255     0.261    -6.847   1.900E-01       8.559
   38    8 O     4    -1.698     5.230    -4.662   1.900E-01       8.616
   39    8 O     4     5.016    -3.908    -3.853   1.900E-01       8.563
   40    8 O     4    -2.972    -0.887    -4.925   1.900E-01       8.579
   41    8 O     4     5.081     0.021    -0.989   1.900E-01       8.696
   42    8 O     4     5.175    -1.241    -3.792   1.900E-01       8.549
   43    8 O     4     4.355    -2.419    -1.680   1.900E-01       8.643
   44    8 O     4    -0.845     1.106    -1.374   1.900E-01       8.613
   45    8 O     4    -3.429     1.737    -1.562   1.900E-01       8.694
   46    8 O     4    -1.566    -4.383    -7.010   1.900E-01       8.533
   47    8 O     4     0.326    -0.866    -2.521   1.900E-01       8.608
   48    8 O     4     1.849     0.948    -1.288   1.900E-01       8.574
   49    8 O     4     3.537    -4.040     0.433   1.900E-01       8.713
   50    8 O     4     0.371     5.189    -2.773   1.900E-01       8.603
   51    8 O     4     0.938     3.714    -4.994   1.900E-01       8.609
   52    8 O     4    -1.101     3.294    -2.831   1.900E-01       8.835
   53    8 O     4    -1.331     0.371    -6.505   1.900E-01       8.609
   54    8 O     4     3.784    -0.199    -5.788   1.900E-01       8.561
   55    8 O     4     4.864     4.411    -4.709   1.900E-01       8.717
   56    8 O     4    -3.888    -3.048    -6.747   1.900E-01       8.568
   57    8 O     4    -0.761     4.007    -7.018   1.900E-01       8.721
   58    8 O     4    -3.416     3.442    -3.720   1.900E-01       8.730
   59    8 O     4     2.647    -1.843    -7.483   1.900E-01       8.713
   60    8 O     4    -3.602    -2.934    -2.256   1.900E-01       8.585
   61    8 O     4    -2.743    -5.413    -2.054   1.900E-01       8.636
   62    8 O     4     0.696    -3.288    -3.678   1.900E-01       8.538
   63    8 O     4    -3.466     4.385    -6.290   1.900E-01       8.899
   64    8 O     4     4.230     2.430    -1.464   1.900E-01       8.822
   65   14 SI    6     1.690     4.886     2.020   6.000E-01      13.656
   66   14 SI    6     5.011     1.613     1.762   6.000E-01      13.606
   67   14 SI    6     0.611     3.121     3.302   6.000E-01      14.068
   68   14 SI    6     3.759     1.014     3.668   6.000E-01      13.888
   69   14 SI    6     2.061     2.094     4.865   6.000E-01      14.015
   70   14 SI    6     4.570     4.630     4.850   6.000E-01      13.974
   71   14 SI    6     1.136    -1.310     0.656   6.000E-01      13.293
   72   14 SI    6     5.197    -3.783     0.490   6.000E-01      13.161
   73   14 SI    6     0.232    -2.598     4.039   6.000E-01      13.885
   74   14 SI    6     2.970    -5.039     3.671   6.000E-01      13.992
   75   14 SI    6     2.097    -3.437     5.037   6.000E-01      14.042
   76   14 SI    6     4.721    -0.702     4.948   6.000E-01      14.038
   77   14 SI    6    -4.076     4.689     1.561   6.000E-01      13.337
   78   14 SI    6    -0.098     1.119     1.881   6.000E-01      13.621
   79   14 SI    6    -4.770     3.032     3.543   6.000E-01      14.168
   80   14 SI    6    -1.899     0.372     3.516   6.000E-01      14.132
   81   14 SI    6    -3.120     1.932     4.844   6.000E-01      13.954
   82   14 SI    6    -0.515     4.631     4.770   6.000E-01      13.965
   83   14 SI    6    -3.210    -0.827     1.750   6.000E-01      13.558
   84   14 SI    6    -1.076    -3.629     1.292   6.000E-01      13.059
   85   14 SI    6    -3.951    -1.583     3.792   6.000E-01      13.901
   86   14 SI    6    -1.362    -4.304     3.604   6.000E-01      14.064
   87   14 SI    6    -3.064    -3.362     4.942   6.000E-01      13.991
   88   14 SI    6    -0.652    -0.764     5.114   6.000E-01      14.007
   89   14 SI    6     0.788     0.651     6.272   6.000E-01      13.981
   90   14 SI    6     3.294     3.394     6.379   6.000E-01      13.989
   91   14 SI    6     0.692    -4.848     6.320   6.000E-01      14.032
   92   14 SI    6     3.362    -2.005     6.362   6.000E-01      13.990
   93   14 SI    6    -4.443     0.641     6.336   6.000E-01      14.009
   94   14 SI    6    -1.902     3.381     6.266   6.000E-01      13.993
   95   14 SI    6    -4.484    -4.804     6.113   6.000E-01      13.993
   96   14 SI    6    -1.891    -2.126     6.571   6.000E-01      14.025
   97   14 SI    6    -3.332    -4.135    -1.103   6.000E-01      12.965
   98   14 SI    6     1.933    -3.577     0.223   6.000E-01      13.080
   99   14 SI    6     4.329    -1.324    -0.435   6.000E-01      12.870
  100   14 SI    6     1.973     4.713     7.820   6.000E-01      14.014
  101   14 SI    6     4.657     1.996     7.629   6.000E-01      14.001
  102   14 SI    6     0.608     3.325     9.165   6.000E-01      14.027
  103   14 SI    6     3.344     0.727     9.069   6.000E-01      14.024
  104   14 SI    6     1.917     1.938    10.472   6.000E-01      14.103
  105   14 SI    6     4.474     4.606    10.267   6.000E-01      13.811
  106   14 SI    6     1.994    -0.697     7.772   6.000E-01      13.987
  107   14 SI    6     4.766    -3.426     7.562   6.000E-01      13.988
  108   14 SI    6     0.681    -2.083     9.193   6.000E-01      14.019
  109   14 SI    6     3.392    -4.642     8.963   6.000E-01      14.049
  110   14 SI    6     2.308    -3.184    10.412   6.000E-01      14.054
  111   14 SI    6     4.382    -0.828    10.397   6.000E-01      14.062
  112   14 SI    6    -3.232     4.781     7.646   6.000E-01      14.034
  113   14 SI    6    -0.586     1.971     7.664   6.000E-01      14.021
  114   14 SI    6    -4.542     3.357     8.972   6.000E-01      14.023
  115   14 SI    6    -1.857     0.604     9.185   6.000E-01      14.015
  116   14 SI    6    -2.890     2.370    10.286   6.000E-01      13.664
  117   14 SI    6    -1.237     4.087    10.389   6.000E-01      13.637
  118   14 SI    6    -3.249    -0.731     7.873   6.000E-01      13.983
  119   14 SI    6    -0.570    -3.547     7.865   6.000E-01      13.977
  120   14 SI    6    -4.596    -2.133     9.205   6.000E-01      13.997
  121   14 SI    6    -1.949    -4.843     9.243   6.000E-01      14.022
  122   14 SI    6    -3.241    -3.453    10.655   6.000E-01      14.054
  123   14 SI    6    -0.642    -0.783    10.681   6.000E-01      14.052
  124   14 SI    6     0.797     0.527   -10.582   6.000E-01      13.259
  125   14 SI    6     2.920     3.623   -10.844   6.000E-01      13.424
  126   14 SI    6     2.328    -4.568   -10.192   6.000E-01      13.474
  127   14 SI    6     3.133    -1.699   -10.396   6.000E-01      13.663
  128   14 SI    6    -4.653     0.176    -9.452   6.000E-01      13.168
  129   14 SI    6    -2.855     3.758    -9.780   6.000E-01      13.283
  130   14 SI    6    -3.989    -4.749   -10.067   6.000E-01      13.095
  131   14 SI    6    -2.302    -1.800   -10.474   6.000E-01      13.270
  132   14 SI    6     3.622     2.765    -7.944   6.000E-01      12.689
  133   14 SI    6     1.501    -3.073    -7.658   6.000E-01      12.709
  134   14 SI    6    -4.889     4.890    -7.254   6.000E-01      13.131
  135   14 SI    6    -1.035     2.441    -8.446   6.000E-01      13.046
  136   14 SI    6    -4.636    -2.596    -8.053   6.000E-01      12.923
  137   14 SI    6    -1.864    -2.787    -7.270   6.000E-01      13.237
  138   14 SI    6     2.852     1.784    -2.217   6.000E-01      12.667
  139   14 SI    6     3.785    -0.488    -4.202   6.000E-01      12.806
  140   14 SI    6    -2.465     0.610    -5.271   6.000E-01      12.838
  141   14 SI    6    -0.040    -0.649    -6.525   6.000E-01      12.993
  142   14 SI    6     1.460    -4.458    -2.868   6.000E-01      12.803
  143   14 SI    6    -2.257    -2.373    -4.970   6.000E-01      13.329
  144   14 SI    6    -5.090    -2.623    -2.927   6.000E-01      12.903
  145   14 SI    6    -1.967     1.715    -2.361   6.000E-01      12.663
  146   14 SI    6     4.020     4.264    -0.623   6.000E-01      13.166
  147   14 SI    6     0.607     3.722    -3.404   6.000E-01      12.745
  148   14 SI    6     0.951    -1.699    -3.730   6.000E-01      12.807
  149   14 SI    6    -4.911     1.566    -0.673   6.000E-01      12.881
  150   14 SI    6    -4.387     3.109    -5.057   6.000E-01      12.875
  151   14 SI    6    -1.856     5.020    -6.319   6.000E-01      12.646
  152   14 SI    6     2.815    -0.197    -7.091   6.000E-01      12.649
  153   14 SI    6     0.445     0.061    -1.157   6.000E-01      13.069
  154   14 SI    6     1.358     4.680    -6.392   6.000E-01      12.742
  155   14 SI    6     4.309    -5.375    -3.602   6.000E-01      12.758
  156   14 SI    6    -2.283     4.529    -3.309   6.000E-01      12.696
 *******************************************************************************
 DE(K)                   0.000E+00  ENERGY LEVEL SHIFTING        0.00000
 TOTAL ENERGY -3.1446685419406E+04  CONVERGENCE ON ENER        1.997E-06
 KIN. ENERGY   3.1335987652940E+04  VIR. COEFF.           1.03711251E+00
 N. OF SCF CYCLES              109  FERMI ENERGY              -0.861E-01
 WEIGHT OF F(I) IN F(I+1)      95
 SHRINK. FACT.(MONKH.)     2  2  2  SHRINKING FACTOR(GILAT NET)        2
 NUMBER OF K POINTS IN THE IBZ   8  CELL VOLUME (A.U.)       17302.90050
 *******************************************************************************

 GCALCO - MAX INDICES DIRECT LATTICE VECTOR    19    18     9
 NO.OF VECTORS CREATED 6999 STARS 1062 RMAX   306.73144 BOHR

 DIMENSIONS  P(G)= 6561008 F(G)= 1167453 P(G),F(G) (IRR) 3289156
 MAX G-VECTOR INDEX FOR 1- AND 2-ELECTRON INTEGRALS  45


 CAPPA:IS1  2;IS2  2;IS3  2; K PTS MONK NET    8; SYMMOPS: K SPACE  2;G SPACE  1


 CAPPA:IS1  6;IS2  6;IS3  3; K PTS MONK NET   56; SYMMOPS: K SPACE  2;G SPACE  1

 *******************************************************************************
 RESTART WITH NEW K POINTS NET
 *******************************************************************************
 POINTS IN THE IBZ                  56 POINTS(GILAT NET)                56
 SHRINK FACTORS(MONK.)         6  6  3 SHRINK FACTOR(GILAT)              6
 *******************************************************************************
 *** K POINTS COORDINATES (OBLIQUE COORDINATES IN UNITS OF IS =  6)
   1-R(  0  0  0)   2-C(  1  0  0)   3-C(  2  0  0)   4-R(  3  0  0)
   5-C(  0  1  0)   6-C(  1  1  0)   7-C(  2  1  0)   8-C(  3  1  0)
   9-C(  4  1  0)  10-C(  5  1  0)  11-C(  0  2  0)  12-C(  1  2  0)
  13-C(  2  2  0)  14-C(  3  2  0)  15-C(  4  2  0)  16-C(  5  2  0)
  17-R(  0  3  0)  18-C(  1  3  0)  19-C(  2  3  0)  20-R(  3  3  0)
  21-C(  0  0  1)  22-C(  1  0  1)  23-C(  2  0  1)  24-C(  3  0  1)
  25-C(  4  0  1)  26-C(  5  0  1)  27-C(  0  1  1)  28-C(  1  1  1)
  29-C(  2  1  1)  30-C(  3  1  1)  31-C(  4  1  1)  32-C(  5  1  1)
  33-C(  0  2  1)  34-C(  1  2  1)  35-C(  2  2  1)  36-C(  3  2  1)
  37-C(  4  2  1)  38-C(  5  2  1)  39-C(  0  3  1)  40-C(  1  3  1)
  41-C(  2  3  1)  42-C(  3  3  1)  43-C(  4  3  1)  44-C(  5  3  1)
  45-C(  0  4  1)  46-C(  1  4  1)  47-C(  2  4  1)  48-C(  3  4  1)
  49-C(  4  4  1)  50-C(  5  4  1)  51-C(  0  5  1)  52-C(  1  5  1)
  53-C(  2  5  1)  54-C(  3  5  1)  55-C(  4  5  1)  56-C(  5  5  1)

 FERMI ENERGY AND DENSITY MATRIX CALCULATION ON COMPUTED EIGENVECTORS
 DENSITY MATRIX AT SCF CYCLE (109+1)


    ALPHA      ELECTRONS
 INSULATING STATE
 TOP OF VALENCE BANDS -    BAND    900; K   17; EIG -8.8168315E-02 AU
 TOP OF VALENCE BANDS -    BAND    900; K    1; EIG -8.8851776E-02 AU
 BOTTOM OF VIRTUAL BANDS - BAND    901; K   40; EIG -7.5139042E-02 AU
 BOTTOM OF VIRTUAL BANDS - BAND    901; K    1; EIG -7.4453569E-02 AU

    BETA       ELECTRONS
 INSULATING STATE
 TOP OF VALENCE BANDS -    BAND    900; K   17; EIG -8.6391791E-02 AU
 TOP OF VALENCE BANDS -    BAND    900; K    1; EIG -8.8851776E-02 AU
 BOTTOM OF VIRTUAL BANDS - BAND    901; K   42; EIG -7.4701000E-02 AU
 BOTTOM OF VIRTUAL BANDS - BAND    901; K    1; EIG -7.4453569E-02 AU

 CORE DENSITY MATRIX CALCULATION
 TTTTTTTTTTTTTTTTTTTTTTTTTTTTTT NEWK        TELAPSE   125592.01 TCPU   125395.80
 TTTTTTTTTTTTTTTTTTTTTTTTTTTTTT SETPRINT    TELAPSE   125592.01 TCPU   125395.80

 *******************************************************************************
 HYPERFINE ELECTRON-NUCLEAR SPIN INTERACTION TENSOR
 ANISOTROPIC COMPONENTS - THE TENSOR IS TRACELESS
 *******************************************************************************


 POINT   ATOM  MASS NO  NUCLEAR G FACTOR
    1    1 O      17      -0.7575220

 TENSOR IN ORIGINAL CARTESIAN AXES
 XX  3.419149E-02 YY -1.627031E-02 ZZ -1.792118E-02 XY -5.231967E-03 XZ  7.200857E-03 YZ  5.105562E-02

 TENSOR IN PRINCIPAL AXIS SYSTEM
 AA  3.585875E-02 BB  3.305091E-02 CC -6.890966E-02

 PRINCIPAL AXES
         X             Y             Z
 A  8.179636E-01  3.585246E-01  4.498840E-01
 B -5.689437E-01  6.198322E-01  5.404730E-01
 C -8.507977E-02 -6.980459E-01  7.109805E-01

 ANGLES BETWEEN PRINCIPAL AXES AND ORIGINAL AXES (DEGREES)
         X             Y             Z
 A     35.118538     68.990388     63.263756
 B    124.676600     51.696115     57.284156
 C     94.880612    134.270439     44.685251


 POINT   ATOM  MASS NO  NUCLEAR G FACTOR
    2    2 O      17      -0.7575220

 TENSOR IN ORIGINAL CARTESIAN AXES
 XX -1.136553E-03 YY -5.247076E-03 ZZ  6.383629E-03 XY  1.271325E-02 XZ  2.297517E-03 YZ -1.269957E-02

 TENSOR IN PRINCIPAL AXIS SYSTEM
 AA  1.643861E-02 BB -2.088030E-02 CC  4.441688E-03

 PRINCIPAL AXES
         X             Y             Z
 A  3.560903E-01  6.188079E-01 -7.001974E-01
 B -5.294973E-01  7.510273E-01  3.944498E-01
 C  7.699560E-01  2.302929E-01  5.950907E-01

 ANGLES BETWEEN PRINCIPAL AXES AND ORIGINAL AXES (DEGREES)
         X             Y             Z
 A     69.139717     51.770867    134.442847
 B    121.971496     41.320558     66.768337
 C     39.650060     76.685683     53.480904


 POINT   ATOM  MASS NO  NUCLEAR G FACTOR
    3    3 O      17      -0.7575220

 TENSOR IN ORIGINAL CARTESIAN AXES
 XX  1.787149E-03 YY  3.735381E-03 ZZ -5.522530E-03 XY -6.244256E-04 XZ  3.919064E-03 YZ  1.947273E-03

 TENSOR IN PRINCIPAL AXIS SYSTEM
 AA  3.431164E-03 BB  4.160968E-03 CC -7.592131E-03

 PRINCIPAL AXES
         X             Y             Z
 A  8.999598E-01 -2.818453E-01  3.326192E-01
 B  1.959351E-01  9.430192E-01  2.689315E-01
 C -3.894634E-01 -1.768558E-01  9.039028E-01

 ANGLES BETWEEN PRINCIPAL AXES AND ORIGINAL AXES (DEGREES)
         X             Y             Z
 A     25.847212    106.370368     70.572173
 B     78.700644     19.435061     74.399303
 C    112.921114    100.186672     25.324086


 POINT   ATOM  MASS NO  NUCLEAR G FACTOR
    4    4 O      17      -0.7575220

 TENSOR IN ORIGINAL CARTESIAN AXES
 XX  2.389149E-04 YY -3.154242E-03 ZZ  2.915327E-03 XY  9.202705E-04 XZ -4.260099E-03 YZ -4.719852E-04

 TENSOR IN PRINCIPAL AXIS SYSTEM
 AA -2.573560E-03 BB -3.561254E-03 CC  6.134814E-03

 PRINCIPAL AXES
         X             Y             Z
 A  6.296539E-01  5.614253E-01  5.369708E-01
 B -5.019891E-01  8.215428E-01 -2.703228E-01
 C -5.929105E-01 -9.934373E-02  7.991170E-01

 ANGLES BETWEEN PRINCIPAL AXES AND ORIGINAL AXES (DEGREES)
         X             Y             Z
 A     50.975408     55.845579     57.522334
 B    120.131687     34.760470    105.683475
 C    126.363821     95.701381     36.954138


 POINT   ATOM  MASS NO  NUCLEAR G FACTOR
    5    5 O      17      -0.7575220

 TENSOR IN ORIGINAL CARTESIAN AXES
 XX -1.414784E-03 YY  7.454333E-04 ZZ  6.693511E-04 XY  2.677130E-05 XZ  5.538199E-04 YZ -4.239834E-04

 TENSOR IN PRINCIPAL AXIS SYSTEM
 AA -1.560195E-03 BB  3.748851E-04 CC  1.185310E-03

 PRINCIPAL AXES
         X             Y             Z
 A  9.663018E-01 -5.736542E-02 -2.509384E-01
 B  2.122483E-01  7.291259E-01  6.506351E-01
 C  1.456417E-01 -6.819711E-01  7.167314E-01

 ANGLES BETWEEN PRINCIPAL AXES AND ORIGINAL AXES (DEGREES)
         X             Y             Z
 A     14.916545     93.288602    104.533047
 B     77.745858     43.186834     49.410496
 C     81.625559    132.997866     44.214727


 POINT   ATOM  MASS NO  NUCLEAR G FACTOR
    6    6 O      17      -0.7575220

 TENSOR IN ORIGINAL CARTESIAN AXES
 XX -3.148583E-03 YY -1.174248E-03 ZZ  4.322831E-03 XY  3.420827E-03 XZ -3.305653E-03 YZ  1.342519E-03

 TENSOR IN PRINCIPAL AXIS SYSTEM
 AA -6.800941E-03 BB  1.225198E-03 CC  5.575743E-03

 PRINCIPAL AXES
         X             Y             Z
 A  7.822622E-01 -5.467988E-01  2.984577E-01
 B  5.142715E-01  8.372256E-01  1.859521E-01
 C -3.515548E-01  8.024933E-03  9.361329E-01

 ANGLES BETWEEN PRINCIPAL AXES AND ORIGINAL AXES (DEGREES)
         X             Y             Z
 A     38.531835    123.147674     72.635010
 B     59.051229     33.151704     79.283350
 C    110.582443     89.540200     20.588048


 POINT   ATOM  MASS NO  NUCLEAR G FACTOR
    7    7 O      17      -0.7575220

 TENSOR IN ORIGINAL CARTESIAN AXES
 XX  1.494760E-04 YY  1.876819E-03 ZZ -2.026295E-03 XY -2.855095E-03 XZ  4.008166E-03 YZ  3.927230E-03

 TENSOR IN PRINCIPAL AXIS SYSTEM
 AA  3.205583E-03 BB  4.377058E-03 CC -7.582641E-03

 PRINCIPAL AXES
         X             Y             Z
 A  8.187119E-01 -7.765337E-02  5.689295E-01
 B -2.046494E-01  8.862872E-01  4.154681E-01
 C -5.364974E-01 -4.565797E-01  7.097221E-01

 ANGLES BETWEEN PRINCIPAL AXES AND ORIGINAL AXES (DEGREES)
         X             Y             Z
 A     35.043944     94.453694     55.324388
 B    101.808973     27.589661     65.451204
 C    122.445521    117.166621     44.787689


 POINT   ATOM  MASS NO  NUCLEAR G FACTOR
    8    8 O      17      -0.7575220

 TENSOR IN ORIGINAL CARTESIAN AXES
 XX  3.566024E-04 YY -5.283645E-04 ZZ  1.717621E-04 XY -7.488882E-04 XZ  3.473229E-04 YZ -1.523778E-03

 TENSOR IN PRINCIPAL AXIS SYSTEM
 AA  1.779024E-03 BB -1.810159E-03 CC  3.113418E-05

 PRINCIPAL AXES
         X             Y             Z
 A  4.701463E-01 -5.875319E-01  6.586112E-01
 B  1.818375E-01  7.946984E-01  5.791283E-01
 C -8.636536E-01 -1.525148E-01  4.804598E-01

 ANGLES BETWEEN PRINCIPAL AXES AND ORIGINAL AXES (DEGREES)
         X             Y             Z
 A     61.956207    125.982059     48.805957
 B     79.523191     37.373224     54.610744
 C    149.729320     98.772690     61.284561


 POINT   ATOM  MASS NO  NUCLEAR G FACTOR
    9    9 O      17      -0.7575220

 TENSOR IN ORIGINAL CARTESIAN AXES
 XX  2.479631E-03 YY -7.260812E-03 ZZ  4.781181E-03 XY -3.320599E-03 XZ  1.493740E-03 YZ  3.072829E-03

 TENSOR IN PRINCIPAL AXIS SYSTEM
 AA  3.389073E-03 BB -9.107321E-03 CC  5.718248E-03

 PRINCIPAL AXES
         X             Y             Z
 A  9.131122E-01 -3.466356E-01 -2.146390E-01
 B  2.957327E-01  9.255127E-01 -2.365763E-01
 C  2.806569E-01  1.525449E-01  9.476084E-01

 ANGLES BETWEEN PRINCIPAL AXES AND ORIGINAL AXES (DEGREES)
         X             Y             Z
 A     24.060959    110.281668    102.394349
 B     72.798522     22.254201    103.684558
 C     73.700587     81.225562     18.628714


 POINT   ATOM  MASS NO  NUCLEAR G FACTOR
   10   10 O      17      -0.7575220

 TENSOR IN ORIGINAL CARTESIAN AXES
 XX  1.411851E-03 YY  2.169965E-03 ZZ -3.581816E-03 XY -4.317801E-03 XZ  4.928816E-03 YZ -8.190589E-04

 TENSOR IN PRINCIPAL AXIS SYSTEM
 AA -6.997062E-04 BB  7.630378E-03 CC -6.930672E-03

 PRINCIPAL AXES
         X             Y             Z
 A  4.150538E-01  7.650400E-01  4.923862E-01
 B -7.065526E-01  6.119991E-01 -3.553034E-01
 C -5.731613E-01 -2.004267E-01  7.945535E-01

 ANGLES BETWEEN PRINCIPAL AXES AND ORIGINAL AXES (DEGREES)
         X             Y             Z
 A     65.477296     40.089450     60.502459
 B    134.955110     52.265805    110.812042
 C    124.970966    101.561913     37.386895


 POINT   ATOM  MASS NO  NUCLEAR G FACTOR
   11   11 O      17      -0.7575220

 TENSOR IN ORIGINAL CARTESIAN AXES
 XX  9.794523E-03 YY  8.258469E-03 ZZ -1.805299E-02 XY  6.410366E-03 XZ -1.930827E-02 YZ  2.283437E-02

 TENSOR IN PRINCIPAL AXIS SYSTEM
 AA  2.390241E-02 BB  1.546848E-02 CC -3.937089E-02

 PRINCIPAL AXES
         X             Y             Z
 A  5.028567E-01 -6.407505E-01 -5.801499E-01
 B  7.776768E-01  6.283488E-01 -1.991695E-02
 C  3.772983E-01 -4.411538E-01  8.142661E-01

 ANGLES BETWEEN PRINCIPAL AXES AND ORIGINAL AXES (DEGREES)
         X             Y             Z
 A     59.810822    129.847804    125.461090
 B     38.951650     51.071597     91.141233
 C     67.833566    116.177518     35.485136


 POINT   ATOM  MASS NO  NUCLEAR G FACTOR
   12   12 O      17      -0.7575220

 TENSOR IN ORIGINAL CARTESIAN AXES
 XX  1.214029E-03 YY -1.248098E-03 ZZ  3.406923E-05 XY -1.072373E-03 XZ -3.703933E-04 YZ -8.747983E-04

 TENSOR IN PRINCIPAL AXIS SYSTEM
 AA  1.616831E-03 BB -2.076574E-03 CC  4.597435E-04

 PRINCIPAL AXES
         X             Y             Z
 A  9.391380E-01 -3.421695E-01 -3.065730E-02
 B  3.239960E-01  8.525059E-01  4.101955E-01
 C -1.142209E-01 -3.951630E-01  9.114822E-01

 ANGLES BETWEEN PRINCIPAL AXES AND ORIGINAL AXES (DEGREES)
         X             Y             Z
 A     20.092707    110.009107     91.756809
 B     71.095238     31.514724     65.782886
 C     96.558687    113.276140     24.289008


 POINT   ATOM  MASS NO  NUCLEAR G FACTOR
   13   13 O      17      -0.7575220

 TENSOR IN ORIGINAL CARTESIAN AXES
 XX -3.308589E-03 YY -1.049911E-03 ZZ  4.358500E-03 XY -4.268596E-02 XZ  3.778333E-02 YZ  2.689757E-02

 TENSOR IN PRINCIPAL AXIS SYSTEM
 AA -7.240615E-02 BB  4.373204E-02 CC  2.867411E-02

 PRINCIPAL AXES
         X             Y             Z
 A  6.363793E-01  5.746570E-01 -5.145781E-01
 B -7.710689E-01  4.927284E-01 -4.033255E-01
 C  2.177341E-02  6.534432E-01  7.566623E-01

 ANGLES BETWEEN PRINCIPAL AXES AND ORIGINAL AXES (DEGREES)
         X             Y             Z
 A     50.477638     54.924383    120.969260
 B    140.449973     60.479931    113.786238
 C     88.752377     49.198288     40.829167


 POINT   ATOM  MASS NO  NUCLEAR G FACTOR
   14   14 O      17      -0.7575220

 TENSOR IN ORIGINAL CARTESIAN AXES
 XX -6.178852E-02 YY -4.844338E-02 ZZ  1.102319E-01 XY -7.333448E-03 XZ  3.770812E-02 YZ -8.155662E-02

 TENSOR IN PRINCIPAL AXIS SYSTEM
 AA -6.502089E-02 BB -8.629276E-02 CC  1.513137E-01

 PRINCIPAL AXES
         X             Y             Z
 A  9.022588E-01  4.311457E-01  6.506620E-03
 B -3.945627E-01  8.194269E-01  4.157641E-01
 C  1.739232E-01 -3.776941E-01  9.094492E-01

 ANGLES BETWEEN PRINCIPAL AXES AND ORIGINAL AXES (DEGREES)
         X             Y             Z
 A     25.543412     64.459706     89.627195
 B    113.238702     34.972531     65.432554
 C     79.983997    112.190924     24.570653


 POINT   ATOM  MASS NO  NUCLEAR G FACTOR
   15   15 O      17      -0.7575220

 TENSOR IN ORIGINAL CARTESIAN AXES
 XX  9.219045E-02 YY -1.752857E-01 ZZ  8.309527E-02 XY  3.523831E-02 XZ  9.191254E-03 YZ -5.795332E-02

 TENSOR IN PRINCIPAL AXIS SYSTEM
 AA  9.790582E-02 BB -1.923410E-01 CC  9.443516E-02

 PRINCIPAL AXES
         X             Y             Z
 A  8.261436E-01 -1.293541E-02  5.633111E-01
 B -1.268361E-01  9.698091E-01  2.082857E-01
 C -5.489985E-01 -2.435221E-01  7.995609E-01

 ANGLES BETWEEN PRINCIPAL AXES AND ORIGINAL AXES (DEGREES)
         X             Y             Z
 A     34.295395     90.741165     55.714904
 B     97.286798     14.114792     77.978090
 C    123.298335    104.094510     36.911810


 POINT   ATOM  MASS NO  NUCLEAR G FACTOR
   16   16 O      17      -0.7575220

 TENSOR IN ORIGINAL CARTESIAN AXES
 XX -9.119881E-03 YY  1.028755E-03 ZZ  8.091126E-03 XY  1.211407E-02 XZ -6.853329E-03 YZ  2.472437E-03

 TENSOR IN PRINCIPAL AXIS SYSTEM
 AA -1.903248E-02 BB  7.783122E-03 CC  1.124936E-02

 PRINCIPAL AXES
         X             Y             Z
 A  8.139812E-01 -5.227465E-01  2.533195E-01
 B  2.968980E-01  7.492136E-01  5.920562E-01
 C -4.992857E-01 -4.067126E-01  7.650481E-01

 ANGLES BETWEEN PRINCIPAL AXES AND ORIGINAL AXES (DEGREES)
         X             Y             Z
 A     35.513252    121.516659     75.325969
 B     72.728617     41.477697     53.696938
 C    119.952755    113.998492     40.088726


 POINT   ATOM  MASS NO  NUCLEAR G FACTOR
   17   17 O      17      -0.7575220

 TENSOR IN ORIGINAL CARTESIAN AXES
 XX -3.545876E-03 YY -4.274446E-03 ZZ  7.820322E-03 XY -1.328503E-03 XZ -3.000542E-03 YZ  4.289684E-03

 TENSOR IN PRINCIPAL AXIS SYSTEM
 AA -4.247698E-03 BB -5.727147E-03 CC  9.974845E-03

 PRINCIPAL AXES
         X             Y             Z
 A  9.433283E-01 -1.592534E-01  2.911532E-01
 B  2.346461E-01  9.404844E-01 -2.458257E-01
 C -2.346764E-01  3.002123E-01  9.245537E-01

 ANGLES BETWEEN PRINCIPAL AXES AND ORIGINAL AXES (DEGREES)
         X             Y             Z
 A     19.381778     99.163565     73.072993
 B     76.429238     19.866931    104.230634
 C    103.572550     72.529648     22.398845


 POINT   ATOM  MASS NO  NUCLEAR G FACTOR
   18   18 O      17      -0.7575220

 TENSOR IN ORIGINAL CARTESIAN AXES
 XX  6.257162E-02 YY -1.009109E-02 ZZ -5.248053E-02 XY -3.677341E-02 XZ -4.002208E-02 YZ -8.780184E-02

 TENSOR IN PRINCIPAL AXIS SYSTEM
 AA  7.816668E-02 BB  5.821164E-02 CC -1.363783E-01

 PRINCIPAL AXES
         X             Y             Z
 A  9.447777E-01 -3.190071E-01 -7.503074E-02
 B  1.956150E-01  7.326595E-01 -6.518779E-01
 C  2.629257E-01  6.012025E-01  7.546030E-01

 ANGLES BETWEEN PRINCIPAL AXES AND ORIGINAL AXES (DEGREES)
         X             Y             Z
 A     19.129962    108.602891     94.302989
 B     78.719345     42.890183    130.683336
 C     74.756268     53.043929     41.009311


 POINT   ATOM  MASS NO  NUCLEAR G FACTOR
   19   19 O      17      -0.7575220

 TENSOR IN ORIGINAL CARTESIAN AXES
 XX  7.897678E-02 YY  6.366811E-02 ZZ -1.426449E-01 XY  1.851553E-02 XZ  6.147112E-02 YZ -6.834811E-02

 TENSOR IN PRINCIPAL AXIS SYSTEM
 AA  9.494092E-02 BB  8.425621E-02 CC -1.791971E-01

 PRINCIPAL AXES
         X             Y             Z
 A  9.704463E-01  6.951270E-02  2.310886E-01
 B  8.969747E-05  9.575098E-01 -2.884008E-01
 C -2.413171E-01  2.798983E-01  9.292056E-01

 ANGLES BETWEEN PRINCIPAL AXES AND ORIGINAL AXES (DEGREES)
         X             Y             Z
 A     13.964290     86.014001     76.638831
 B     89.994861     16.762241    106.762240
 C    103.964289     73.745868     21.688682


 POINT   ATOM  MASS NO  NUCLEAR G FACTOR
   20   20 O      17      -0.7575220

 TENSOR IN ORIGINAL CARTESIAN AXES
 XX -7.697113E-03 YY -6.667774E-03 ZZ  1.436489E-02 XY -2.489767E-03 XZ  9.232110E-03 YZ -5.086922E-03

 TENSOR IN PRINCIPAL AXIS SYSTEM
 AA -1.115798E-02 BB -7.798588E-03 CC  1.895657E-02

 PRINCIPAL AXES
         X             Y             Z
 A  9.364989E-01  1.750323E-01 -3.038642E-01
 B -9.516644E-02  9.608599E-01  2.601761E-01
 C  3.375101E-01 -2.147370E-01  9.165015E-01

 ANGLES BETWEEN PRINCIPAL AXES AND ORIGINAL AXES (DEGREES)
         X             Y             Z
 A     20.528327     79.919465    107.689845
 B     95.460899     16.083309     74.919488
 C     70.274749    102.400097     23.580137


 POINT   ATOM  MASS NO  NUCLEAR G FACTOR
   21   21 O      17      -0.7575220

 TENSOR IN ORIGINAL CARTESIAN AXES
 XX  5.857420E-03 YY -1.104925E-04 ZZ -5.746928E-03 XY -1.047914E-02 XZ  7.189552E-03 YZ -5.842655E-03

 TENSOR IN PRINCIPAL AXIS SYSTEM
 AA  1.746297E-02 BB -7.959071E-03 CC -9.503894E-03

 PRINCIPAL AXES
         X             Y             Z
 A  7.383551E-01 -5.634855E-01  3.705615E-01
 B  6.535511E-01  7.334322E-01 -1.869444E-01
 C -1.664413E-01  3.802123E-01  9.097999E-01

 ANGLES BETWEEN PRINCIPAL AXES AND ORIGINAL AXES (DEGREES)
         X             Y             Z
 A     42.408517    124.297187     68.249747
 B     49.190122     42.825098    100.774517
 C     99.580972     67.653169     24.522280


 POINT   ATOM  MASS NO  NUCLEAR G FACTOR
   22   22 O      17      -0.7575220

 TENSOR IN ORIGINAL CARTESIAN AXES
 XX  2.696238E-03 YY -2.595896E-03 ZZ -1.003425E-04 XY -1.698332E-03 XZ  9.696312E-04 YZ -5.249516E-04

 TENSOR IN PRINCIPAL AXIS SYSTEM
 AA  3.516497E-03 BB -3.112869E-03 CC -4.036283E-04

 PRINCIPAL AXES
         X             Y             Z
 A  9.165591E-01 -2.792504E-01  2.862492E-01
 B  2.671493E-01  9.602164E-01  8.133736E-02
 C -2.975746E-01  1.920758E-03  9.546966E-01

 ANGLES BETWEEN PRINCIPAL AXES AND ORIGINAL AXES (DEGREES)
         X             Y             Z
 A     23.571879    106.215473     73.366468
 B     74.505299     16.215867     85.334559
 C    107.311988     89.889949     17.312360


 POINT   ATOM  MASS NO  NUCLEAR G FACTOR
   23   23 O      17      -0.7575220

 TENSOR IN ORIGINAL CARTESIAN AXES
 XX  3.955842E-04 YY -1.219842E-04 ZZ -2.736000E-04 XY -7.138126E-04 XZ -7.591562E-04 YZ  1.717209E-03

 TENSOR IN PRINCIPAL AXIS SYSTEM
 AA  2.141541E-03 BB -2.233526E-04 CC -1.918188E-03

 PRINCIPAL AXES
         X             Y             Z
 A  5.121146E-01 -6.157735E-01 -5.988001E-01
 B  8.584762E-01  3.892911E-01  3.338728E-01
 C  2.751757E-02 -6.850368E-01  7.279886E-01

 ANGLES BETWEEN PRINCIPAL AXES AND ORIGINAL AXES (DEGREES)
         X             Y             Z
 A     59.195214    128.008146    126.784012
 B     30.854080     67.089602     70.495994
 C     88.423160    133.238501     43.281967


 POINT   ATOM  MASS NO  NUCLEAR G FACTOR
   24   24 O      17      -0.7575220

 TENSOR IN ORIGINAL CARTESIAN AXES
 XX -5.967472E-03 YY  8.288769E-03 ZZ -2.321297E-03 XY -3.338363E-03 XZ -9.755824E-04 YZ  7.573110E-03

 TENSOR IN PRINCIPAL AXIS SYSTEM
 AA -7.108961E-03 BB  1.284947E-02 CC -5.740510E-03

 PRINCIPAL AXES
         X             Y             Z
 A  7.741219E-01  4.065079E-01 -4.852696E-01
 B -1.786178E-01  8.756901E-01  4.486229E-01
 C  6.073146E-01 -2.606111E-01  7.505004E-01

 ANGLES BETWEEN PRINCIPAL AXES AND ORIGINAL AXES (DEGREES)
         X             Y             Z
 A     39.274511     66.014344    119.030137
 B    100.289259     28.873244     63.344635
 C     52.604420    105.106323     41.366254


 POINT   ATOM  MASS NO  NUCLEAR G FACTOR
   25   25 O      17      -0.7575220

 TENSOR IN ORIGINAL CARTESIAN AXES
 XX -7.364921E-04 YY  3.590585E-03 ZZ -2.854093E-03 XY  1.334283E-03 XZ -3.110222E-07 YZ  1.061076E-03

 TENSOR IN PRINCIPAL AXIS SYSTEM
 AA -1.072612E-03 BB  4.118708E-03 CC -3.046097E-03

 PRINCIPAL AXES
         X             Y             Z
 A  9.595676E-01 -2.417585E-01 -1.441624E-01
 B  2.621752E-01  9.540390E-01  1.451678E-01
 C  1.024410E-01 -1.770942E-01  9.788480E-01

 ANGLES BETWEEN PRINCIPAL AXES AND ORIGINAL AXES (DEGREES)
         X             Y             Z
 A     16.348449    103.990353     98.288780
 B     74.800831     17.438527     81.653001
 C     84.120248    100.200549     11.805418


 POINT   ATOM  MASS NO  NUCLEAR G FACTOR
   26   26 O      17      -0.7575220

 TENSOR IN ORIGINAL CARTESIAN AXES
 XX  4.259686E-02 YY  1.372222E-02 ZZ -5.631908E-02 XY -1.041421E-01 XZ -6.067475E-02 YZ  3.362315E-02

 TENSOR IN PRINCIPAL AXIS SYSTEM
 AA  1.551523E-01 BB -6.376833E-02 CC -9.138400E-02

 PRINCIPAL AXES
         X             Y             Z
 A  7.302066E-01 -6.105753E-01 -3.065878E-01
 B  3.025153E-01  6.912879E-01 -6.562054E-01
 C  6.126033E-01  3.864180E-01  6.894914E-01

 ANGLES BETWEEN PRINCIPAL AXES AND ORIGINAL AXES (DEGREES)
         X             Y             Z
 A     43.096281    127.631111    107.853718
 B     72.391260     46.267858    131.011115
 C     52.222024     67.268198     46.410141


 POINT   ATOM  MASS NO  NUCLEAR G FACTOR
   27   27 O      17      -0.7575220

 TENSOR IN ORIGINAL CARTESIAN AXES
 XX  6.960572E-03 YY -1.651071E-02 ZZ  9.550138E-03 XY  4.965409E-03 XZ  2.375842E-02 YZ  6.463044E-03

 TENSOR IN PRINCIPAL AXIS SYSTEM
 AA -1.527079E-02 BB -1.809631E-02 CC  3.336709E-02

 PRINCIPAL AXES
         X             Y             Z
 A  7.265628E-01 -3.035134E-01 -6.164302E-01
 B  1.191737E-01  9.392162E-01 -3.219790E-01
 C  6.766862E-01  1.604757E-01  7.185704E-01

 ANGLES BETWEEN PRINCIPAL AXES AND ORIGINAL AXES (DEGREES)
         X             Y             Z
 A     43.400992    107.668750    128.055911
 B     83.155583     20.079652    108.782649
 C     47.414772     80.765491     44.063426


 POINT   ATOM  MASS NO  NUCLEAR G FACTOR
   28   28 O      17      -0.7575220

 TENSOR IN ORIGINAL CARTESIAN AXES
 XX -6.911374E-02 YY  2.432490E-01 ZZ -1.741353E-01 XY  1.929316E-01 XZ  2.557445E-03 YZ  7.150057E-03

 TENSOR IN PRINCIPAL AXIS SYSTEM
 AA -1.611113E-01 BB  3.354038E-01 CC -1.742924E-01

 PRINCIPAL AXES
         X             Y             Z
 A  9.013859E-01 -4.290413E-01 -5.854038E-02
 B  4.305159E-01  9.024612E-01  1.482452E-02
 C  4.647009E-02 -3.856517E-02  9.981750E-01

 ANGLES BETWEEN PRINCIPAL AXES AND ORIGINAL AXES (DEGREES)
         X             Y             Z
 A     25.659156    115.406733     93.356035
 B     64.499696     25.516503     89.150587
 C     87.336501     92.210170      3.462099


 POINT   ATOM  MASS NO  NUCLEAR G FACTOR
   29   29 O      17      -0.7575220

 TENSOR IN ORIGINAL CARTESIAN AXES
 XX  6.176465E-03 YY  4.271191E-04 ZZ -6.603584E-03 XY  1.375621E-02 XZ -1.128631E-02 YZ -1.050402E-02

 TENSOR IN PRINCIPAL AXIS SYSTEM
 AA  2.487905E-02 BB -1.051790E-02 CC -1.436115E-02

 PRINCIPAL AXES
         X             Y             Z
 A  6.890508E-01  5.763713E-01 -4.393234E-01
 B -7.043594E-01  6.752774E-01 -2.188112E-01
 C  1.705487E-01  4.602136E-01  8.712730E-01

 ANGLES BETWEEN PRINCIPAL AXES AND ORIGINAL AXES (DEGREES)
         X             Y             Z
 A     46.444980     54.804276    116.060720
 B    134.777811     47.524305    102.639217
 C     80.180278     62.599111     29.393092


 POINT   ATOM  MASS NO  NUCLEAR G FACTOR
   30   30 O      17      -0.7575220

 TENSOR IN ORIGINAL CARTESIAN AXES
 XX  1.501266E-01 YY -9.902892E-02 ZZ -5.109765E-02 XY -1.489550E-01 XZ -2.023565E-01 YZ  9.806165E-02

 TENSOR IN PRINCIPAL AXIS SYSTEM
 AA  3.467937E-01 BB -1.678957E-01 CC -1.788980E-01

 PRINCIPAL AXES
         X             Y             Z
 A  7.874495E-01 -3.713125E-01 -4.919861E-01
 B  5.269774E-01  8.195826E-01  2.248983E-01
 C  3.197157E-01 -4.363616E-01  8.410532E-01

 ANGLES BETWEEN PRINCIPAL AXES AND ORIGINAL AXES (DEGREES)
         X             Y             Z
 A     38.052203    111.796583    119.471208
 B     58.198545     34.956970     77.003103
 C     71.354266    115.871966     32.748502


 POINT   ATOM  MASS NO  NUCLEAR G FACTOR
   31   31 O      17      -0.7575220

 TENSOR IN ORIGINAL CARTESIAN AXES
 XX -4.121233E-05 YY  1.562043E-04 ZZ -1.149920E-04 XY  1.106898E-04 XZ -2.800222E-04 YZ  1.305828E-03

 TENSOR IN PRINCIPAL AXIS SYSTEM
 AA  1.144349E-05 BB  1.341651E-03 CC -1.353095E-03

 PRINCIPAL AXES
         X             Y             Z
 A  9.744325E-01  1.988260E-01 -1.046400E-01
 B -7.760177E-02  7.348958E-01  6.737256E-01
 C  2.108537E-01 -6.483799E-01  7.315356E-01

 ANGLES BETWEEN PRINCIPAL AXES AND ORIGINAL AXES (DEGREES)
         X             Y             Z
 A     12.984088     78.531687     96.006428
 B     94.450729     42.701590     47.644737
 C     77.827616    130.419561     42.984719


 POINT   ATOM  MASS NO  NUCLEAR G FACTOR
   32   32 O      17      -0.7575220

 TENSOR IN ORIGINAL CARTESIAN AXES
 XX  2.714967E-03 YY  1.286034E-03 ZZ -4.001001E-03 XY -2.154310E-03 XZ  5.800605E-03 YZ -3.543975E-03

 TENSOR IN PRINCIPAL AXIS SYSTEM
 AA  8.082046E-03 BB -2.496256E-04 CC -7.832420E-03

 PRINCIPAL AXES
         X             Y             Z
 A  7.242818E-01 -4.851105E-01  4.899833E-01
 B  5.385041E-01  8.417917E-01  3.741596E-02
 C -4.306148E-01  2.367584E-01  8.709285E-01

 ANGLES BETWEEN PRINCIPAL AXES AND ORIGINAL AXES (DEGREES)
         X             Y             Z
 A     43.590862    119.019709     60.660513
 B     57.418133     32.670191     87.855723
 C    115.506584     76.304705     29.433288


 POINT   ATOM  MASS NO  NUCLEAR G FACTOR
   33   33 O      17      -0.7575220

 TENSOR IN ORIGINAL CARTESIAN AXES
 XX -8.112086E-03 YY  3.619670E-03 ZZ  4.492417E-03 XY -5.215107E-03 XZ  9.259193E-03 YZ  5.926141E-03

 TENSOR IN PRINCIPAL AXIS SYSTEM
 AA -1.585330E-02 BB  4.910245E-03 CC  1.094305E-02

 PRINCIPAL AXES
         X             Y             Z
 A  8.055797E-01  3.591505E-01 -4.712242E-01
 B -5.254137E-01  8.006162E-01 -2.880176E-01
 C  2.738281E-01  4.796088E-01  8.336627E-01

 ANGLES BETWEEN PRINCIPAL AXES AND ORIGINAL AXES (DEGREES)
         X             Y             Z
 A     36.333723     68.951967    118.113794
 B    121.696096     36.811013    106.739312
 C     74.107811     61.340144     33.523151


 POINT   ATOM  MASS NO  NUCLEAR G FACTOR
   34   34 O      17      -0.7575220

 TENSOR IN ORIGINAL CARTESIAN AXES
 XX  3.879258E-03 YY -8.273499E-03 ZZ  4.394241E-03 XY -1.409371E-03 XZ  4.411958E-03 YZ  7.061448E-03

 TENSOR IN PRINCIPAL AXIS SYSTEM
 AA  2.298864E-03 BB -1.204698E-02 CC  9.748116E-03

 PRINCIPAL AXES
         X             Y             Z
 A  8.209156E-01 -3.887932E-01 -4.182552E-01
 B  1.973424E-01  8.804551E-01 -4.311087E-01
 C  5.358671E-01  2.713644E-01  7.995047E-01

 ANGLES BETWEEN PRINCIPAL AXES AND ORIGINAL AXES (DEGREES)
         X             Y             Z
 A     34.823445    112.879427    114.724482
 B     78.618409     28.302686    115.537945
 C     57.597265     74.254526     36.917167


 POINT   ATOM  MASS NO  NUCLEAR G FACTOR
   35   35 O      17      -0.7575220

 TENSOR IN ORIGINAL CARTESIAN AXES
 XX  1.169816E-03 YY  2.127439E-03 ZZ -3.297255E-03 XY -9.311316E-05 XZ -1.952788E-03 YZ  2.268310E-03

 TENSOR IN PRINCIPAL AXIS SYSTEM
 AA  1.394562E-03 BB  3.289178E-03 CC -4.683741E-03

 PRINCIPAL AXES
         X             Y             Z
 A  8.633499E-01  4.894602E-01 -1.227013E-01
 B -4.073462E-01  8.195411E-01  4.030154E-01
 C  2.978188E-01 -2.979614E-01  9.069305E-01

 ANGLES BETWEEN PRINCIPAL AXES AND ORIGINAL AXES (DEGREES)
         X             Y             Z
 A     30.305181     60.694891     97.048027
 B    114.038234     34.961113     66.233178
 C     72.673361    107.335203     24.915440


 POINT   ATOM  MASS NO  NUCLEAR G FACTOR
   36   36 O      17      -0.7575220

 TENSOR IN ORIGINAL CARTESIAN AXES
 XX  2.933510E-02 YY  7.060643E-02 ZZ -9.994153E-02 XY  2.164294E-02 XZ -9.339360E-02 YZ  3.195324E-02

 TENSOR IN PRINCIPAL AXIS SYSTEM
 AA  8.201336E-02 BB  7.337955E-02 CC -1.553929E-01

 PRINCIPAL AXES
         X             Y             Z
 A  7.172715E-01  6.487588E-01 -2.542313E-01
 B -5.230489E-01  7.423652E-01  4.187049E-01
 C  4.603710E-01 -1.673498E-01  8.718100E-01

 ANGLES BETWEEN PRINCIPAL AXES AND ORIGINAL AXES (DEGREES)
         X             Y             Z
 A     44.170330     49.551912    104.728040
 B    121.536986     42.066716     65.247148
 C     62.588951     99.633764     29.330344


 POINT   ATOM  MASS NO  NUCLEAR G FACTOR
   37   37 O      17      -0.7575220

 TENSOR IN ORIGINAL CARTESIAN AXES
 XX -5.209226E-05 YY  6.673991E-04 ZZ -6.153069E-04 XY  5.281334E-03 XZ -2.430532E-03 YZ  5.629857E-03

 TENSOR IN PRINCIPAL AXIS SYSTEM
 AA -8.964916E-03 BB  6.855502E-03 CC  2.109414E-03

 PRINCIPAL AXES
         X             Y             Z
 A  5.273925E-01 -6.253351E-01  5.751636E-01
 B  4.399754E-01  7.801371E-01  4.447559E-01
 C -7.268279E-01  1.849688E-02  6.865705E-01

 ANGLES BETWEEN PRINCIPAL AXES AND ORIGINAL AXES (DEGREES)
         X             Y             Z
 A     58.170553    128.706786     54.888910
 B     63.897692     38.726870     63.592279
 C    136.621122     88.940146     46.640756


 POINT   ATOM  MASS NO  NUCLEAR G FACTOR
   38   38 O      17      -0.7575220

 TENSOR IN ORIGINAL CARTESIAN AXES
 XX  1.168824E-02 YY -2.992790E-03 ZZ -8.695451E-03 XY  2.422192E-03 XZ -5.485374E-03 YZ -1.424499E-03

 TENSOR IN PRINCIPAL AXIS SYSTEM
 AA  1.351201E-02 BB -3.343362E-03 CC -1.016864E-02

 PRINCIPAL AXES
         X             Y             Z
 A  9.556152E-01  1.615096E-01 -2.464027E-01
 B -1.842505E-01  9.802344E-01 -7.205792E-02
 C  2.298943E-01  1.142595E-01  9.664851E-01

 ANGLES BETWEEN PRINCIPAL AXES AND ORIGINAL AXES (DEGREES)
         X             Y             Z
 A     17.134621     80.705468    104.264744
 B    100.617437     11.410665     94.132196
 C     76.709149     83.439086     14.875697


 POINT   ATOM  MASS NO  NUCLEAR G FACTOR
   39   39 O      17      -0.7575220

 TENSOR IN ORIGINAL CARTESIAN AXES
 XX -6.550076E-03 YY  1.445855E-02 ZZ -7.908471E-03 XY  1.738784E-03 XZ  7.686966E-04 YZ  8.918820E-03

 TENSOR IN PRINCIPAL AXIS SYSTEM
 AA -6.692762E-03 BB  1.772739E-02 CC -1.103462E-02

 PRINCIPAL AXES
         X             Y             Z
 A  9.963636E-01 -8.490571E-02  7.109208E-03
 B  7.782563E-02  9.408828E-01  3.296706E-01
 C -3.467985E-02 -3.279185E-01  9.440693E-01

 ANGLES BETWEEN PRINCIPAL AXES AND ORIGINAL AXES (DEGREES)
         X             Y             Z
 A      4.887688     94.870603     89.592669
 B     85.536406     19.799655     70.751216
 C     91.987407    109.142487     19.253435


 POINT   ATOM  MASS NO  NUCLEAR G FACTOR
   40   40 O      17      -0.7575220

 TENSOR IN ORIGINAL CARTESIAN AXES
 XX -4.264751E-03 YY  7.373699E-03 ZZ -3.108949E-03 XY -3.889070E-03 XZ  2.556208E-03 YZ -5.425334E-04

 TENSOR IN PRINCIPAL AXIS SYSTEM
 AA -6.874705E-03 BB  8.692805E-03 CC -1.818100E-03

 PRINCIPAL AXES
         X             Y             Z
 A  8.233332E-01  2.045688E-01 -5.294091E-01
 B -3.055192E-01  9.458508E-01 -1.096554E-01
 C  4.783099E-01  2.520276E-01  8.412501E-01

 ANGLES BETWEEN PRINCIPAL AXES AND ORIGINAL AXES (DEGREES)
         X             Y             Z
 A     34.580130     78.195743    121.965538
 B    107.789403     18.941449     96.295452
 C     61.424922     75.402473     32.727638


 POINT   ATOM  MASS NO  NUCLEAR G FACTOR
   41   41 O      17      -0.7575220

 TENSOR IN ORIGINAL CARTESIAN AXES
 XX -4.715385E-04 YY  6.475235E-04 ZZ -1.759850E-04 XY -8.394851E-04 XZ -1.745457E-03 YZ -2.637942E-03

 TENSOR IN PRINCIPAL AXIS SYSTEM
 AA -3.576629E-03 BB  5.832461E-04 CC  2.993383E-03

 PRINCIPAL AXES
         X             Y             Z
 A  5.205609E-01  5.242935E-01  6.738937E-01
 B -8.360298E-01  4.732866E-01  2.775859E-01
 C -1.734083E-01 -7.078956E-01  6.846995E-01

 ANGLES BETWEEN PRINCIPAL AXES AND ORIGINAL AXES (DEGREES)
         X             Y             Z
 A     58.630116     58.379307     47.631704
 B    146.723224     61.752153     73.883822
 C     99.986046    135.063952     46.788022


 POINT   ATOM  MASS NO  NUCLEAR G FACTOR
   42   42 O      17      -0.7575220

 TENSOR IN ORIGINAL CARTESIAN AXES
 XX -2.296857E-03 YY  6.511496E-03 ZZ -4.214639E-03 XY  1.057067E-03 XZ  2.941278E-04 YZ -1.116129E-03

 TENSOR IN PRINCIPAL AXIS SYSTEM
 AA -2.332831E-03 BB  6.742008E-03 CC -4.409177E-03

 PRINCIPAL AXES
         X             Y             Z
 A  9.743715E-01 -9.046634E-02  2.059515E-01
 B  1.124629E-01  9.888400E-01 -9.771172E-02
 C -1.948134E-01  1.183694E-01  9.736716E-01

 ANGLES BETWEEN PRINCIPAL AXES AND ORIGINAL AXES (DEGREES)
         X             Y             Z
 A     12.999634     95.190436     78.114796
 B     83.542691      8.567906     95.607417
 C    101.233826     83.201994     13.176719


 POINT   ATOM  MASS NO  NUCLEAR G FACTOR
   43   43 O      17      -0.7575220

 TENSOR IN ORIGINAL CARTESIAN AXES
 XX -8.062598E-04 YY  1.051031E-03 ZZ -2.447711E-04 XY -7.339616E-06 XZ  1.554118E-04 YZ  6.126915E-04

 TENSOR IN PRINCIPAL AXIS SYSTEM
 AA -8.649506E-04 BB  1.296078E-03 CC -4.311275E-04

 PRINCIPAL AXES
         X             Y             Z
 A  9.311560E-01  1.142891E-01 -3.462463E-01
 B  2.422179E-02  9.281196E-01  3.714934E-01
 C  3.638156E-01 -3.543050E-01  8.614558E-01

 ANGLES BETWEEN PRINCIPAL AXES AND ORIGINAL AXES (DEGREES)
         X             Y             Z
 A     21.384260     83.437378    110.257891
 B     88.612058     21.856436     68.192251
 C     68.665290    110.750857     30.519560


 POINT   ATOM  MASS NO  NUCLEAR G FACTOR
   44   44 O      17      -0.7575220

 TENSOR IN ORIGINAL CARTESIAN AXES
 XX  4.994984E-05 YY -3.751675E-04 ZZ  3.252177E-04 XY -2.973210E-04 XZ  1.060639E-03 YZ -2.661882E-03

 TENSOR IN PRINCIPAL AXIS SYSTEM
 AA -2.042685E-04 BB -2.794792E-03 CC  2.999061E-03

 PRINCIPAL AXES
         X             Y             Z
 A  9.299291E-01  3.454613E-01 -1.260489E-01
 B -1.757561E-01  7.186082E-01  6.728388E-01
 C  3.230196E-01 -6.035386E-01  7.289716E-01

 ANGLES BETWEEN PRINCIPAL AXES AND ORIGINAL AXES (DEGREES)
         X             Y             Z
 A     21.576232     69.790042     97.241333
 B    100.122661     44.060313     47.713453
 C     71.154367    127.123751     43.199752


 POINT   ATOM  MASS NO  NUCLEAR G FACTOR
   45   45 O      17      -0.7575220

 TENSOR IN ORIGINAL CARTESIAN AXES
 XX  3.068810E-04 YY -3.313700E-04 ZZ  2.448901E-05 XY  5.607243E-04 XZ  3.374959E-03 YZ -2.604292E-03

 TENSOR IN PRINCIPAL AXIS SYSTEM
 AA  4.072110E-03 BB  4.444344E-04 CC -4.516545E-03

 PRINCIPAL AXES
         X             Y             Z
 A  5.952960E-01 -3.515171E-01  7.225361E-01
 B  5.989654E-01  7.935363E-01 -1.074274E-01
 C -5.355961E-01  4.967252E-01  6.829355E-01

 ANGLES BETWEEN PRINCIPAL AXES AND ORIGINAL AXES (DEGREES)
         X             Y             Z
 A     53.466267    110.580133     43.735732
 B     53.204165     37.482779     96.167035
 C    122.384346     60.216422     46.926540


 POINT   ATOM  MASS NO  NUCLEAR G FACTOR
   46   46 O      17      -0.7575220

 TENSOR IN ORIGINAL CARTESIAN AXES
 XX  6.571522E-03 YY -1.085942E-03 ZZ -5.485580E-03 XY -8.872337E-04 XZ -4.581173E-03 YZ -9.431566E-04

 TENSOR IN PRINCIPAL AXIS SYSTEM
 AA  8.146535E-03 BB -8.925087E-04 CC -7.254026E-03

 PRINCIPAL AXES
         X             Y             Z
 A  9.474821E-01 -5.894141E-02 -3.143304E-01
 B -4.357178E-03  9.803993E-01 -1.969726E-01
 C  3.197791E-01  1.879976E-01  9.286540E-01

 ANGLES BETWEEN PRINCIPAL AXES AND ORIGINAL AXES (DEGREES)
         X             Y             Z
 A     18.651364     93.379053    108.320395
 B     90.249649     11.362795    101.359979
 C     71.350431     79.164051     21.774043


 POINT   ATOM  MASS NO  NUCLEAR G FACTOR
   47   47 O      17      -0.7575220

 TENSOR IN ORIGINAL CARTESIAN AXES
 XX  5.851675E-04 YY  1.771480E-03 ZZ -2.356648E-03 XY -1.191870E-04 XZ -2.219542E-04 YZ -5.880519E-05

 TENSOR IN PRINCIPAL AXIS SYSTEM
 AA  5.907393E-04 BB  1.783662E-03 CC -2.374402E-03

 PRINCIPAL AXES
         X             Y             Z
 A  9.923908E-01  9.635671E-02 -7.665486E-02
 B -9.731961E-02  9.952132E-01 -8.917994E-03
 C  7.542862E-02  1.631016E-02  9.970178E-01

 ANGLES BETWEEN PRINCIPAL AXES AND ORIGINAL AXES (DEGREES)
         X             Y             Z
 A      7.072682     84.470588     94.396313
 B     95.584842      5.608317     90.510970
 C     85.674150     89.065455      4.426023


 POINT   ATOM  MASS NO  NUCLEAR G FACTOR
   48   48 O      17      -0.7575220

 TENSOR IN ORIGINAL CARTESIAN AXES
 XX -3.338197E-05 YY -9.417153E-05 ZZ  1.275535E-04 XY -1.785001E-04 XZ -9.801530E-04 YZ -1.198307E-03

 TENSOR IN PRINCIPAL AXIS SYSTEM
 AA -1.617873E-03 BB  1.172060E-04 CC  1.500667E-03

 PRINCIPAL AXES
         X             Y             Z
 A  4.755316E-01  5.775543E-01  6.635516E-01
 B -7.740254E-01  6.331442E-01  3.614449E-03
 C -4.180363E-01 -5.153246E-01  7.481218E-01

 ANGLES BETWEEN PRINCIPAL AXES AND ORIGINAL AXES (DEGREES)
         X             Y             Z
 A     61.606033     54.721291     48.428696
 B    140.716758     50.717522     89.792907
 C    114.710673    121.019154     41.572058


 POINT   ATOM  MASS NO  NUCLEAR G FACTOR
   49   49 O      17      -0.7575220

 TENSOR IN ORIGINAL CARTESIAN AXES
 XX -2.946941E-03 YY -1.939969E-03 ZZ  4.886910E-03 XY -6.185134E-04 XZ  8.229951E-04 YZ  2.811600E-04

 TENSOR IN PRINCIPAL AXIS SYSTEM
 AA -3.331878E-03 BB -1.647335E-03 CC  4.979214E-03

 PRINCIPAL AXES
         X             Y             Z
 A  9.008106E-01  4.214201E-01 -1.046199E-01
 B -4.223495E-01  9.063219E-01  1.419739E-02
 C  1.008024E-01  3.139703E-02  9.944109E-01

 ANGLES BETWEEN PRINCIPAL AXES AND ORIGINAL AXES (DEGREES)
         X             Y             Z
 A     25.735177     65.075721     96.005271
 B    114.983013     24.998093     89.186522
 C     84.214621     88.200787      6.060519


 POINT   ATOM  MASS NO  NUCLEAR G FACTOR
   50   50 O      17      -0.7575220

 TENSOR IN ORIGINAL CARTESIAN AXES
 XX -3.820768E-05 YY  2.297636E-05 ZZ  1.523132E-05 XY  3.252032E-04 XZ -1.872765E-03 YZ  1.866359E-03

 TENSOR IN PRINCIPAL AXIS SYSTEM
 AA -2.808681E-03 BB  3.176517E-04 CC  2.491029E-03

 PRINCIPAL AXES
         X             Y             Z
 A  5.219054E-01 -5.104033E-01  6.834495E-01
 B  7.067766E-01  7.073438E-01 -1.147112E-02
 C -4.775789E-01  4.890330E-01  7.299076E-01

 ANGLES BETWEEN PRINCIPAL AXES AND ORIGINAL AXES (DEGREES)
         X             Y             Z
 A     58.539851    120.690695     46.886207
 B     45.026748     44.980791     90.657261
 C    118.527395     60.722959     43.121349


 POINT   ATOM  MASS NO  NUCLEAR G FACTOR
   51   51 O      17      -0.7575220

 TENSOR IN ORIGINAL CARTESIAN AXES
 XX -9.977039E-02 YY  1.120981E-01 ZZ -1.232772E-02 XY -2.887845E-02 XZ  9.523557E-03 YZ -1.304201E-01

 TENSOR IN PRINCIPAL AXIS SYSTEM
 AA -1.070194E-01 BB  1.973160E-01 CC -9.029661E-02

 PRINCIPAL AXES
         X             Y             Z
 A  8.571540E-01  3.421296E-01  3.850120E-01
 B -9.889028E-02  8.429187E-01 -5.288750E-01
 C -5.054776E-01  4.152534E-01  7.563445E-01

 ANGLES BETWEEN PRINCIPAL AXES AND ORIGINAL AXES (DEGREES)
         X             Y             Z
 A     31.001474     69.993325     67.355513
 B     95.675272     32.550379    121.929477
 C    120.363065     65.464723     40.857015


 POINT   ATOM  MASS NO  NUCLEAR G FACTOR
   52   52 O      17      -0.7575220

 TENSOR IN ORIGINAL CARTESIAN AXES
 XX  1.497809E-02 YY -1.291512E-02 ZZ -2.062976E-03 XY -6.132334E-03 XZ -1.013109E-02 YZ  1.319333E-03

 TENSOR IN PRINCIPAL AXIS SYSTEM
 AA  2.080693E-02 BB -1.427500E-02 CC -6.531932E-03

 PRINCIPAL AXES
         X             Y             Z
 A  8.957082E-01 -1.788114E-01 -4.071034E-01
 B  2.339388E-01  9.681246E-01  8.948372E-02
 C  3.781262E-01 -1.753886E-01  9.089881E-01

 ANGLES BETWEEN PRINCIPAL AXES AND ORIGINAL AXES (DEGREES)
         X             Y             Z
 A     26.400454    100.300537    114.023007
 B     76.470924     14.505263     84.866093
 C     67.782339    100.101273     24.634107


 POINT   ATOM  MASS NO  NUCLEAR G FACTOR
   53   53 O      17      -0.7575220

 TENSOR IN ORIGINAL CARTESIAN AXES
 XX  4.456144E-02 YY -2.622856E-02 ZZ -1.833288E-02 XY -2.026048E-02 XZ  3.934804E-03 YZ  5.387617E-02

 TENSOR IN PRINCIPAL AXIS SYSTEM
 AA  5.263817E-02 BB -7.881105E-02 CC  2.617288E-02

 PRINCIPAL AXES
         X             Y             Z
 A  8.800977E-01 -4.004009E-01 -2.551612E-01
 B  1.417922E-01  7.345426E-01 -6.635828E-01
 C  4.531259E-01  5.478378E-01  7.032430E-01

 ANGLES BETWEEN PRINCIPAL AXES AND ORIGINAL AXES (DEGREES)
         X             Y             Z
 A     28.345854    113.603244    104.783135
 B     81.848433     42.731416    131.573690
 C     63.055584     56.781200     45.312228


 POINT   ATOM  MASS NO  NUCLEAR G FACTOR
   54   54 O      17      -0.7575220

 TENSOR IN ORIGINAL CARTESIAN AXES
 XX -2.621327E-03 YY  8.955547E-03 ZZ -6.334220E-03 XY  6.675874E-03 XZ  2.479301E-03 YZ  3.953407E-03

 TENSOR IN PRINCIPAL AXIS SYSTEM
 AA -5.486933E-03 BB  1.310501E-02 CC -7.618078E-03

 PRINCIPAL AXES
         X             Y             Z
 A  8.386316E-01 -4.652071E-01  2.833363E-01
 B  4.108442E-01  8.817652E-01  2.317264E-01
 C -3.576369E-01 -7.792601E-02  9.306038E-01

 ANGLES BETWEEN PRINCIPAL AXES AND ORIGINAL AXES (DEGREES)
         X             Y             Z
 A     33.004103    117.723623     73.540570
 B     65.742125     28.143959     76.601265
 C    110.955141     94.469363     21.470872


 POINT   ATOM  MASS NO  NUCLEAR G FACTOR
   55   55 O      17      -0.7575220

 TENSOR IN ORIGINAL CARTESIAN AXES
 XX -1.446488E-01 YY  3.329346E-01 ZZ -1.882858E-01 XY -1.310107E-01 XZ  1.417674E-03 YZ  7.075288E-03

 TENSOR IN PRINCIPAL AXIS SYSTEM
 AA -1.773383E-01 BB  3.665888E-01 CC -1.892505E-01

 PRINCIPAL AXES
         X             Y             Z
 A  9.326723E-01  2.356735E-01  2.730939E-01
 B -2.481929E-01  9.686398E-01  1.171715E-02
 C -2.617682E-01 -7.870823E-02  9.619160E-01

 ANGLES BETWEEN PRINCIPAL AXES AND ORIGINAL AXES (DEGREES)
         X             Y             Z
 A     21.144708     76.368673     74.151543
 B    104.370601     14.386951     89.328641
 C    105.175008     94.514319     15.863422


 POINT   ATOM  MASS NO  NUCLEAR G FACTOR
   56   56 O      17      -0.7575220

 TENSOR IN ORIGINAL CARTESIAN AXES
 XX  1.864081E-04 YY  2.204672E-03 ZZ -2.391080E-03 XY  4.545681E-04 XZ  7.090212E-04 YZ -1.281682E-04

 TENSOR IN PRINCIPAL AXIS SYSTEM
 AA  2.826836E-04 BB  2.302453E-03 CC -2.585137E-03

 PRINCIPAL AXES
         X             Y             Z
 A  9.434156E-01 -2.057859E-01  2.600368E-01
 B  2.117210E-01  9.773158E-01  5.295349E-03
 C -2.552278E-01  5.005952E-02  9.655842E-01

 ANGLES BETWEEN PRINCIPAL AXES AND ORIGINAL AXES (DEGREES)
         X             Y             Z
 A     19.366688    101.875511     74.927756
 B     77.776776     12.227106     89.696597
 C    104.787081     87.130601     15.075443


 POINT   ATOM  MASS NO  NUCLEAR G FACTOR
   57   57 O      17      -0.7575220

 TENSOR IN ORIGINAL CARTESIAN AXES
 XX  2.651880E-01 YY -2.368704E-01 ZZ -2.831758E-02 XY  1.619794E-01 XZ  8.317096E-02 YZ -6.663402E-03

 TENSOR IN PRINCIPAL AXIS SYSTEM
 AA  3.299187E-01 BB -2.881724E-01 CC -4.174633E-02

 PRINCIPAL AXES
         X             Y             Z
 A  9.400392E-01  2.661408E-01  2.132965E-01
 B -2.953510E-01  9.479687E-01  1.188407E-01
 C -1.705701E-01 -1.747122E-01  9.697327E-01

 ANGLES BETWEEN PRINCIPAL AXES AND ORIGINAL AXES (DEGREES)
         X             Y             Z
 A     19.941865     74.565247     77.684392
 B    107.178586     18.563985     83.174800
 C     99.820966    100.061913     14.132732


 POINT   ATOM  MASS NO  NUCLEAR G FACTOR
   58   58 O      17      -0.7575220

 TENSOR IN ORIGINAL CARTESIAN AXES
 XX  5.325131E-02 YY -2.587286E-02 ZZ -2.737845E-02 XY  5.072326E-02 XZ  5.477583E-02 YZ  2.753280E-02

 TENSOR IN PRINCIPAL AXIS SYSTEM
 AA  1.061588E-01 BB -5.055507E-02 CC -5.560371E-02

 PRINCIPAL AXES
         X             Y             Z
 A  8.158393E-01  4.004268E-01  4.172105E-01
 B -4.848651E-01  8.668396E-01  1.161674E-01
 C -3.151381E-01 -2.970648E-01  9.013548E-01

 ANGLES BETWEEN PRINCIPAL AXES AND ORIGINAL AXES (DEGREES)
         X             Y             Z
 A     35.329564     66.395140     65.341398
 B    119.003637     29.906566     83.329035
 C    108.369150    107.281393     25.663273


 POINT   ATOM  MASS NO  NUCLEAR G FACTOR
   59   59 O      17      -0.7575220

 TENSOR IN ORIGINAL CARTESIAN AXES
 XX -8.666960E-03 YY  1.713315E-02 ZZ -8.466192E-03 XY  1.507711E-02 XZ -5.453963E-03 YZ -1.598902E-02

 TENSOR IN PRINCIPAL AXIS SYSTEM
 AA -1.719886E-02 BB  3.120544E-02 CC -1.400659E-02

 PRINCIPAL AXES
         X             Y             Z
 A  5.346014E-01 -5.382149E-01 -6.515567E-01
 B  3.718617E-01  8.421413E-01 -3.905342E-01
 C  7.588941E-01 -3.350884E-02  6.503513E-01

 ANGLES BETWEEN PRINCIPAL AXES AND ORIGINAL AXES (DEGREES)
         X             Y             Z
 A     57.683119    122.562198    130.659075
 B     68.169523     32.633071    112.987744
 C     40.633197     91.920274     49.431903


 POINT   ATOM  MASS NO  NUCLEAR G FACTOR
   60   60 O      17      -0.7575220

 TENSOR IN ORIGINAL CARTESIAN AXES
 XX -2.882476E-04 YY  2.190219E-03 ZZ -1.901971E-03 XY  3.732094E-04 XZ  2.345181E-04 YZ  8.757127E-04

 TENSOR IN PRINCIPAL AXIS SYSTEM
 AA -3.374256E-04 BB  2.432467E-03 CC -2.095041E-03

 PRINCIPAL AXES
         X             Y             Z
 A  9.847957E-01 -1.646235E-01  5.546672E-02
 B  1.502582E-01  9.674571E-01  2.035910E-01
 C -8.717755E-02 -1.921612E-01  9.774836E-01

 ANGLES BETWEEN PRINCIPAL AXES AND ORIGINAL AXES (DEGREES)
         X             Y             Z
 A     10.003982     99.475366     86.820359
 B     81.358107     14.657197     78.252968
 C     95.001254    101.078939     12.181638


 POINT   ATOM  MASS NO  NUCLEAR G FACTOR
   61   61 O      17      -0.7575220

 TENSOR IN ORIGINAL CARTESIAN AXES
 XX -1.547433E-03 YY  1.602917E-03 ZZ -5.548388E-05 XY  9.098345E-04 XZ  7.578181E-04 YZ  6.014920E-03

 TENSOR IN PRINCIPAL AXIS SYSTEM
 AA -1.711016E-03 BB  7.009300E-03 CC -5.298284E-03

 PRINCIPAL AXES
         X             Y             Z
 A  9.905382E-01 -9.849425E-02 -9.556611E-02
 B  1.370429E-01  7.469270E-01  6.506299E-01
 C  7.297599E-03 -6.575705E-01  7.533577E-01

 ANGLES BETWEEN PRINCIPAL AXES AND ORIGINAL AXES (DEGREES)
         X             Y             Z
 A      7.887996     95.652469     95.483904
 B     82.123235     41.675118     49.410887
 C     89.581875    131.114846     41.117925


 POINT   ATOM  MASS NO  NUCLEAR G FACTOR
   62   62 O      17      -0.7575220

 TENSOR IN ORIGINAL CARTESIAN AXES
 XX -8.680020E-04 YY  1.512258E-03 ZZ -6.442556E-04 XY -9.330623E-04 XZ -1.390048E-03 YZ  3.406295E-03

 TENSOR IN PRINCIPAL AXIS SYSTEM
 AA -3.294627E-03 BB  4.474409E-03 CC -1.179782E-03

 PRINCIPAL AXES
         X             Y             Z
 A  2.630823E-01 -5.232943E-01  8.105250E-01
 B -2.846560E-01  7.606166E-01  5.834667E-01
 C -9.218236E-01 -3.842205E-01  5.114594E-02

 ANGLES BETWEEN PRINCIPAL AXES AND ORIGINAL AXES (DEGREES)
         X             Y             Z
 A     74.746964    121.553489     35.852745
 B    106.538285     40.481413     54.305259
 C    157.194146    112.595359     87.068274


 POINT   ATOM  MASS NO  NUCLEAR G FACTOR
   63   63 O      17      -0.7575220

 TENSOR IN ORIGINAL CARTESIAN AXES
 XX -2.031846E-03 YY  1.877693E-02 ZZ -1.674508E-02 XY  1.912159E-02 XZ -1.431178E-02 YZ -4.519965E-02

 TENSOR IN PRINCIPAL AXIS SYSTEM
 AA -1.134577E-02 BB  5.892207E-02 CC -4.757629E-02

 PRINCIPAL AXES
         X             Y             Z
 A  9.307922E-01 -3.165578E-01  1.828035E-01
 B  3.645755E-01  7.674332E-01 -5.273813E-01
 C  2.665720E-02  5.575280E-01  8.297300E-01

 ANGLES BETWEEN PRINCIPAL AXES AND ORIGINAL AXES (DEGREES)
         X             Y             Z
 A     21.441361    108.454880     79.466904
 B     68.618538     39.876054    121.828689
 C     88.472474     56.114983     33.928987


 POINT   ATOM  MASS NO  NUCLEAR G FACTOR
   64   64 O      17      -0.7575220

 TENSOR IN ORIGINAL CARTESIAN AXES
 XX -8.040997E-04 YY -1.140131E-02 ZZ  1.220541E-02 XY  9.340218E-03 XZ -1.349559E-03 YZ -4.374836E-03

 TENSOR IN PRINCIPAL AXIS SYSTEM
 AA  3.411923E-03 BB -1.717443E-02 CC  1.376251E-02

 PRINCIPAL AXES
         X             Y             Z
 A  8.373403E-01  4.272420E-01  3.410653E-01
 B -4.860742E-01  8.673636E-01  1.068279E-01
 C -2.501863E-01 -2.552344E-01  9.339498E-01

 ANGLES BETWEEN PRINCIPAL AXES AND ORIGINAL AXES (DEGREES)
         X             Y             Z
 A     33.139686     64.707342     70.058206
 B    119.082874     29.846292     83.867508
 C    104.488537    104.787474     20.940866


 POINT   ATOM  MASS NO  NUCLEAR G FACTOR
   65   65 SI     29      -1.1106000

 TENSOR IN ORIGINAL CARTESIAN AXES
 XX -3.037359E-02 YY  8.283335E-02 ZZ -5.245976E-02 XY  4.575565E-02 XZ  1.403754E-01 YZ -5.812728E-02

 TENSOR IN PRINCIPAL AXIS SYSTEM
 AA  1.064984E-01 BB  9.486954E-02 CC -2.013679E-01

 PRINCIPAL AXES
         X             Y             Z
 A  3.270630E-01 -7.570135E-01  5.656504E-01
 B  6.826794E-01  6.031620E-01  4.124857E-01
 C -6.534360E-01  2.512491E-01  7.140695E-01

 ANGLES BETWEEN PRINCIPAL AXES AND ORIGINAL AXES (DEGREES)
         X             Y             Z
 A     70.909394    139.201619     55.552534
 B     46.946623     52.903302     65.638924
 C    130.801169     75.448562     44.433007


 POINT   ATOM  MASS NO  NUCLEAR G FACTOR
   66   66 SI     29      -1.1106000

 TENSOR IN ORIGINAL CARTESIAN AXES
 XX -5.885107E-03 YY -3.014639E-03 ZZ  8.899746E-03 XY  3.777123E-03 XZ -2.492555E-03 YZ -3.266385E-03

 TENSOR IN PRINCIPAL AXIS SYSTEM
 AA -8.493024E-03 BB -1.959466E-03 CC  1.045249E-02

 PRINCIPAL AXES
         X             Y             Z
 A  8.267909E-01 -5.623621E-01  1.287491E-02
 B  5.223629E-01  7.760730E-01  3.533379E-01
 C -2.086957E-01 -2.854112E-01  9.354072E-01

 ANGLES BETWEEN PRINCIPAL AXES AND ORIGINAL AXES (DEGREES)
         X             Y             Z
 A     34.229522    124.219310     89.262302
 B     58.509117     39.097582     69.308387
 C    102.045929    106.583428     20.705976


 POINT   ATOM  MASS NO  NUCLEAR G FACTOR
   67   67 SI     29      -1.1106000

 TENSOR IN ORIGINAL CARTESIAN AXES
 XX  6.846347E-03 YY -9.076092E-03 ZZ  2.229745E-03 XY -1.531331E-02 XZ  1.488662E-02 YZ  1.697961E-02

 TENSOR IN PRINCIPAL AXIS SYSTEM
 AA  1.304137E-02 BB -3.267346E-02 CC  1.963210E-02

 PRINCIPAL AXES
         X             Y             Z
 A  4.040226E-01 -7.164007E-01 -5.688021E-01
 B  4.731545E-01  6.958349E-01 -5.403135E-01
 C  7.828732E-01 -5.083237E-02  6.201012E-01

 ANGLES BETWEEN PRINCIPAL AXES AND ORIGINAL AXES (DEGREES)
         X             Y             Z
 A     66.170104    135.758107    124.666732
 B     61.760742     45.906218    122.704982
 C     38.475595     92.913736     51.676471


 POINT   ATOM  MASS NO  NUCLEAR G FACTOR
   68   68 SI     29      -1.1106000

 TENSOR IN ORIGINAL CARTESIAN AXES
 XX -4.948522E-03 YY -7.214948E-03 ZZ  1.216347E-02 XY -6.577224E-03 XZ  1.109030E-03 YZ  2.702774E-04

 TENSOR IN PRINCIPAL AXIS SYSTEM
 AA  5.534795E-04 BB -1.278992E-02 CC  1.223645E-02

 PRINCIPAL AXES
         X             Y             Z
 A  7.609365E-01 -6.462607E-01 -5.764274E-02
 B  6.452678E-01  7.630626E-01 -3.694358E-02
 C  6.786021E-02 -9.083286E-03  9.976535E-01

 ANGLES BETWEEN PRINCIPAL AXES AND ORIGINAL AXES (DEGREES)
         X             Y             Z
 A     40.453170    130.260266     93.304517
 B     49.814240     40.265058     92.117193
 C     86.108906     90.520441      3.925851


 POINT   ATOM  MASS NO  NUCLEAR G FACTOR
   69   69 SI     29      -1.1106000

 TENSOR IN ORIGINAL CARTESIAN AXES
 XX -2.651264E-03 YY -8.954577E-04 ZZ  3.546722E-03 XY  8.855289E-04 XZ  6.143702E-04 YZ -2.511586E-03

 TENSOR IN PRINCIPAL AXIS SYSTEM
 AA -3.446996E-03 BB -1.236820E-03 CC  4.683816E-03

 PRINCIPAL AXES
         X             Y             Z
 A  8.012350E-01 -5.372867E-01 -2.633354E-01
 B  5.977230E-01  7.388529E-01  3.111648E-01
 C  2.738145E-02 -4.067177E-01  9.131434E-01

 ANGLES BETWEEN PRINCIPAL AXES AND ORIGINAL AXES (DEGREES)
         X             Y             Z
 A     36.751805    122.499123    105.268067
 B     53.293006     42.366204     71.870560
 C     88.430962    113.998815     24.056569


 POINT   ATOM  MASS NO  NUCLEAR G FACTOR
   70   70 SI     29      -1.1106000

 TENSOR IN ORIGINAL CARTESIAN AXES
 XX -5.929117E-03 YY  2.603538E-04 ZZ  5.668763E-03 XY  5.406827E-03 XZ -2.777842E-03 YZ  1.649060E-03

 TENSOR IN PRINCIPAL AXIS SYSTEM
 AA -9.741378E-03 BB  3.395125E-03 CC  6.346253E-03

 PRINCIPAL AXES
         X             Y             Z
 A  8.464269E-01 -4.913958E-01  2.051624E-01
 B  5.039788E-01  8.636503E-01 -1.066032E-02
 C -1.719501E-01  1.124207E-01  9.786699E-01

 ANGLES BETWEEN PRINCIPAL AXES AND ORIGINAL AXES (DEGREES)
         X             Y             Z
 A     32.174855    119.432364     78.160995
 B     59.736417     30.271062     90.610803
 C     99.901221     83.545125     11.855207


 POINT   ATOM  MASS NO  NUCLEAR G FACTOR
   71   71 SI     29      -1.1106000

 TENSOR IN ORIGINAL CARTESIAN AXES
 XX  1.758572E-03 YY -4.356327E-04 ZZ -1.322940E-03 XY -1.653708E-03 XZ  2.058565E-03 YZ  1.732214E-03

 TENSOR IN PRINCIPAL AXIS SYSTEM
 AA  2.991321E-03 BB  9.081423E-04 CC -3.899463E-03

 PRINCIPAL AXES
         X             Y             Z
 A  9.060509E-01 -2.743827E-01  3.221583E-01
 B  1.577887E-02  7.826761E-01  6.222292E-01
 C -4.228745E-01 -5.586880E-01  7.134738E-01

 ANGLES BETWEEN PRINCIPAL AXES AND ORIGINAL AXES (DEGREES)
         X             Y             Z
 A     25.034811    105.925230     71.206498
 B     89.095900     38.493746     51.520896
 C    115.016203    123.965111     44.481739


 POINT   ATOM  MASS NO  NUCLEAR G FACTOR
   72   72 SI     29      -1.1106000

 TENSOR IN ORIGINAL CARTESIAN AXES
 XX -1.352185E-03 YY  1.770053E-04 ZZ  1.175180E-03 XY -3.570170E-04 XZ -8.756198E-05 YZ  3.511401E-04

 TENSOR IN PRINCIPAL AXIS SYSTEM
 AA -1.431465E-03 BB  1.309257E-04 CC  1.300540E-03

 PRINCIPAL AXES
         X             Y             Z
 A  9.764056E-01  2.159128E-01  3.713738E-03
 B -2.028320E-01  9.228818E-01 -3.273353E-01
 C -7.410321E-02  3.188587E-01  9.449010E-01

 ANGLES BETWEEN PRINCIPAL AXES AND ORIGINAL AXES (DEGREES)
         X             Y             Z
 A     12.470957     77.530917     89.787218
 B    101.702617     22.648917    109.107117
 C     94.249696     71.406080     19.108395


 POINT   ATOM  MASS NO  NUCLEAR G FACTOR
   73   73 SI     29      -1.1106000

 TENSOR IN ORIGINAL CARTESIAN AXES
 XX  3.598579E-01 YY  3.716816E-01 ZZ -7.315396E-01 XY -9.208273E-02 XZ  3.503051E-01 YZ  3.191954E-01

 TENSOR IN PRINCIPAL AXIS SYSTEM
 AA  4.629764E-01 BB  4.567820E-01 CC -9.197584E-01

 PRINCIPAL AXES
         X             Y             Z
 A  9.147659E-01  2.324802E-01  3.303881E-01
 B -2.983730E-01  9.401531E-01  1.645775E-01
 C -2.723544E-01 -2.491287E-01  9.293858E-01

 ANGLES BETWEEN PRINCIPAL AXES AND ORIGINAL AXES (DEGREES)
         X             Y             Z
 A     23.827496     76.556862     70.707668
 B    107.359908     19.922720     80.527310
 C    105.804413    104.425961     21.660725


 POINT   ATOM  MASS NO  NUCLEAR G FACTOR
   74   74 SI     29      -1.1106000

 TENSOR IN ORIGINAL CARTESIAN AXES
 XX  2.950895E-02 YY -4.433399E-02 ZZ  1.482504E-02 XY  6.469904E-02 XZ -8.706288E-02 YZ -5.439081E-02

 TENSOR IN PRINCIPAL AXIS SYSTEM
 AA  1.468478E-01 BB -8.231701E-02 CC -6.453083E-02

 PRINCIPAL AXES
         X             Y             Z
 A  6.782230E-01  4.041326E-01 -6.137511E-01
 B -4.236026E-01  8.974782E-01  1.228563E-01
 C  6.004785E-01  1.766626E-01  7.798820E-01

 ANGLES BETWEEN PRINCIPAL AXES AND ORIGINAL AXES (DEGREES)
         X             Y             Z
 A     47.295064     66.163220    127.861232
 B    115.062243     26.171452     82.943025
 C     53.095823     79.824573     38.750231


 POINT   ATOM  MASS NO  NUCLEAR G FACTOR
   75   75 SI     29      -1.1106000

 TENSOR IN ORIGINAL CARTESIAN AXES
 XX -3.220744E-03 YY -1.858085E-02 ZZ  2.180159E-02 XY  2.682844E-02 XZ -9.002319E-03 YZ  6.717436E-03

 TENSOR IN PRINCIPAL AXIS SYSTEM
 AA  1.579063E-02 BB -4.067318E-02 CC  2.488255E-02

 PRINCIPAL AXES
         X             Y             Z
 A  7.002517E-01  6.168204E-01  3.594165E-01
 B -6.005716E-01  7.811736E-01 -1.705332E-01
 C -3.859550E-01 -9.643915E-02  9.174629E-01

 ANGLES BETWEEN PRINCIPAL AXES AND ORIGINAL AXES (DEGREES)
         X             Y             Z
 A     45.552798     51.915690     68.935637
 B    126.910849     38.631848     99.818823
 C    112.703040     95.534158     23.442046


 POINT   ATOM  MASS NO  NUCLEAR G FACTOR
   76   76 SI     29      -1.1106000

 TENSOR IN ORIGINAL CARTESIAN AXES
 XX -2.619625E-03 YY -3.850355E-04 ZZ  3.004660E-03 XY -6.602784E-04 XZ -3.570834E-04 YZ -2.081749E-03

 TENSOR IN PRINCIPAL AXIS SYSTEM
 AA -2.971705E-03 BB -1.022775E-03 CC  3.994481E-03

 PRINCIPAL AXES
         X             Y             Z
 A  9.052288E-01  3.815661E-01  1.869977E-01
 B -4.248822E-01  8.189892E-01  3.856577E-01
 C -5.995138E-03 -4.285604E-01  9.034932E-01

 ANGLES BETWEEN PRINCIPAL AXES AND ORIGINAL AXES (DEGREES)
         X             Y             Z
 A     25.145885     67.569274     79.222377
 B    115.143208     35.016268     67.315422
 C     90.343498    115.376237     25.378896


 POINT   ATOM  MASS NO  NUCLEAR G FACTOR
   77   77 SI     29      -1.1106000

 TENSOR IN ORIGINAL CARTESIAN AXES
 XX  2.184305E-03 YY  7.317534E-04 ZZ -2.916058E-03 XY -5.313053E-04 XZ -2.103182E-04 YZ  1.020481E-03

 TENSOR IN PRINCIPAL AXIS SYSTEM
 AA  2.412556E-03 BB  7.704878E-04 CC -3.183044E-03

 PRINCIPAL AXES
         X             Y             Z
 A  9.281224E-01 -3.571518E-01 -1.050308E-01
 B  3.720437E-01  8.998143E-01  2.278545E-01
 C  1.312953E-02 -2.505529E-01  9.680139E-01

 ANGLES BETWEEN PRINCIPAL AXES AND ORIGINAL AXES (DEGREES)
         X             Y             Z
 A     21.856008    110.925382     96.028940
 B     68.158288     25.866329     76.829208
 C     89.247711    104.510234     14.530580


 POINT   ATOM  MASS NO  NUCLEAR G FACTOR
   78   78 SI     29      -1.1106000

 TENSOR IN ORIGINAL CARTESIAN AXES
 XX  8.074269E-03 YY -7.793079E-03 ZZ -2.811901E-04 XY  2.684021E-03 XZ  3.830028E-03 YZ  1.903812E-02

 TENSOR IN PRINCIPAL AXIS SYSTEM
 AA  5.804872E-03 BB -2.344637E-02 CC  1.764150E-02

 PRINCIPAL AXES
         X             Y             Z
 A  8.987812E-01 -2.868073E-01 -3.315628E-01
 B  1.158252E-02  7.715774E-01 -6.360300E-01
 C  4.382445E-01  5.678114E-01  6.968012E-01

 ANGLES BETWEEN PRINCIPAL AXES AND ORIGINAL AXES (DEGREES)
         X             Y             Z
 A     26.001680    106.666912    109.363662
 B     89.336355     39.504247    129.496417
 C     64.008075     55.402249     45.829073


 POINT   ATOM  MASS NO  NUCLEAR G FACTOR
   79   79 SI     29      -1.1106000

 TENSOR IN ORIGINAL CARTESIAN AXES
 XX -2.274114E-03 YY  4.675677E-04 ZZ  1.806547E-03 XY  1.337449E-04 XZ -4.606219E-04 YZ -8.307273E-04

 TENSOR IN PRINCIPAL AXIS SYSTEM
 AA -2.326100E-03 BB  7.262491E-05 CC  2.253475E-03

 PRINCIPAL AXES
         X             Y             Z
 A  9.940650E-01 -1.557455E-02  1.076670E-01
 B -3.185359E-02  9.046518E-01  4.249594E-01
 C -1.040197E-01 -4.258669E-01  8.987866E-01

 ANGLES BETWEEN PRINCIPAL AXES AND ORIGINAL AXES (DEGREES)
         X             Y             Z
 A      6.245430     90.892392     83.819157
 B     91.825385     25.223575     64.851906
 C     95.970688    115.205545     26.000975


 POINT   ATOM  MASS NO  NUCLEAR G FACTOR
   80   80 SI     29      -1.1106000

 TENSOR IN ORIGINAL CARTESIAN AXES
 XX  1.427262E-02 YY  1.650935E-03 ZZ -1.592355E-02 XY  2.180524E-03 XZ  1.784288E-03 YZ  1.909441E-02

 TENSOR IN PRINCIPAL AXIS SYSTEM
 AA  1.688442E-02 BB  1.127374E-02 CC -2.815816E-02

 PRINCIPAL AXES
         X             Y             Z
 A  7.313780E-01  5.713716E-01  3.723181E-01
 B -6.819286E-01  6.189073E-01  3.897783E-01
 C -7.722145E-03 -5.389696E-01  8.422898E-01

 ANGLES BETWEEN PRINCIPAL AXES AND ORIGINAL AXES (DEGREES)
         X             Y             Z
 A     42.997962     55.154072     68.141348
 B    132.994537     51.763617     67.059296
 C     90.442451    122.613523     32.617286


 POINT   ATOM  MASS NO  NUCLEAR G FACTOR
   81   81 SI     29      -1.1106000

 TENSOR IN ORIGINAL CARTESIAN AXES
 XX -1.584092E-03 YY -6.177662E-04 ZZ  2.201858E-03 XY -8.196455E-04 XZ -6.203866E-04 YZ  2.171973E-03

 TENSOR IN PRINCIPAL AXIS SYSTEM
 AA -2.194463E-03 BB -1.358780E-03 CC  3.553243E-03

 PRINCIPAL AXES
         X             Y             Z
 A  6.789540E-01  6.917593E-01 -2.459484E-01
 B -7.116630E-01  5.377720E-01 -4.520365E-01
 C -1.804363E-01  4.819444E-01  8.574219E-01

 ANGLES BETWEEN PRINCIPAL AXES AND ORIGINAL AXES (DEGREES)
         X             Y             Z
 A     47.238045     46.230467    104.237890
 B    135.370387     57.467902    116.874418
 C    100.395172     61.187531     30.971661


 POINT   ATOM  MASS NO  NUCLEAR G FACTOR
   82   82 SI     29      -1.1106000

 TENSOR IN ORIGINAL CARTESIAN AXES
 XX  4.865776E-04 YY  2.442866E-03 ZZ -2.929444E-03 XY  5.408537E-03 XZ -1.697751E-03 YZ -1.991477E-03

 TENSOR IN PRINCIPAL AXIS SYSTEM
 AA -4.032980E-03 BB  7.610675E-03 CC -3.577695E-03

 PRINCIPAL AXES
         X             Y             Z
 A  7.745532E-01 -6.301644E-01  5.440770E-02
 B  6.226328E-01  7.444919E-01 -2.409569E-01
 C  1.113363E-01  2.205099E-01  9.690096E-01

 ANGLES BETWEEN PRINCIPAL AXES AND ORIGINAL AXES (DEGREES)
         X             Y             Z
 A     39.235459    129.062252     86.881128
 B     51.491350     41.884523    103.943022
 C     83.607644     77.261015     14.301424


 POINT   ATOM  MASS NO  NUCLEAR G FACTOR
   83   83 SI     29      -1.1106000

 TENSOR IN ORIGINAL CARTESIAN AXES
 XX -2.190347E-04 YY  1.941353E-03 ZZ -1.722318E-03 XY  1.242664E-03 XZ  1.181814E-03 YZ -2.668175E-03

 TENSOR IN PRINCIPAL AXIS SYSTEM
 AA  4.216611E-04 BB  3.438596E-03 CC -3.860257E-03

 PRINCIPAL AXES
         X             Y             Z
 A  8.962744E-01  4.223767E-02  4.414840E-01
 B  1.661635E-01  8.909654E-01 -4.225758E-01
 C -4.111956E-01  4.521024E-01  7.915312E-01

 ANGLES BETWEEN PRINCIPAL AXES AND ORIGINAL AXES (DEGREES)
         X             Y             Z
 A     26.327399     87.579240     63.801398
 B     80.435167     27.005186    114.997315
 C    114.279960     63.121347     37.671166


 POINT   ATOM  MASS NO  NUCLEAR G FACTOR
   84   84 SI     29      -1.1106000

 TENSOR IN ORIGINAL CARTESIAN AXES
[...]
  27   27 O     3.5371    5.6939   -5.0715   0.22947E-01
  28   28 O     3.1187   -8.2336  -12.4892   0.41046E+00
  29   29 O     6.6098    1.7594   -6.5022   0.14128E-01
  30   30 O    -6.6939    3.2457  -10.8252   0.26819E+00
  31   31 O     3.2962   -7.4458   -2.5966   0.86827E-03
  32   32 O    -3.4166    2.0132   -7.2480   0.51568E-02
  33   33 O     8.5694    9.5084   -3.8764  -0.55076E-02
  34   34 O     5.0843   -9.5815   -7.0983   0.18851E-01
  35   35 O     0.1501   -2.3464   -9.4995  -0.11323E-02
  36   36 O    -0.8428   -4.0387    2.3517  -0.20831E-01
  37   37 O     2.3712    0.4939  -12.9384  -0.24088E-03
  38   38 O    -3.2093    9.8842   -8.8105   0.97117E-02
  39   39 O     9.4794   -7.3846   -7.2814   0.15072E-01
  40   40 O    -5.6167   -1.6767   -9.3077   0.96723E-03
  41   41 O     9.6010    0.0389   -1.8695  -0.30383E-03
  42   42 O     9.7787   -2.3456   -7.1664   0.13538E-02
  43   43 O     8.2307   -4.5711   -3.1747   0.53497E-03
  44   44 O    -1.5967    2.0903   -2.5966  -0.46104E-03
  45   45 O    -6.4806    3.2819   -2.9526   0.91182E-04
  46   46 O    -2.9599   -8.2831  -13.2464   0.41207E-02
  47   47 O     0.6164   -1.6373   -4.7640   0.33531E-03
  48   48 O     3.4942    1.7917   -2.4343   0.43980E-03
  49   49 O     6.6835   -7.6352    0.8182   0.13975E-02
  50   50 O     0.7003    9.8056   -5.2397   0.38520E-02
  51   51 O     1.7724    7.0179   -9.4374   0.24295E+00
  52   52 O    -2.0802    6.2248   -5.3491   0.39696E-01
  53   53 O    -2.5156    0.7004  -12.2927  -0.25077E-01
  54   54 O     7.1508   -0.3752  -10.9384   0.48036E-02
  55   55 O     9.1921    8.3354   -8.8989   0.27277E+00
  56   56 O    -7.3464   -5.7602  -12.7506   0.22210E-03
  57   57 O    -1.4384    7.5730  -13.2630   0.79653E-01
  58   58 O    -6.4546    6.5039   -7.0306   0.10732E+00
  59   59 O     5.0014   -3.4824  -14.1411   0.44582E-01
  60   60 O    -6.8074   -5.5447   -4.2638   0.51902E-03
  61   61 O    -5.1839  -10.2295   -3.8819   0.62404E-02
  62   62 O     1.3157   -6.2144   -6.9513   0.28461E-02
  63   63 O    -6.5494    8.2873  -11.8863   0.38269E-01
  64   64 O     7.9928    4.5916   -2.7657  -0.17093E-02
  65   65 SI    3.1930    9.2331    3.8168  -0.11514E+00
  66   66 SI    9.4699    3.0479    3.3293  -0.16924E-01
  67   67 SI    1.1538    5.8978    6.2408  -0.22764E-01
  68   68 SI    7.1032    1.9155    6.9321  -0.11591E-01
  69   69 SI    3.8942    3.9567    9.1934   0.47555E-02
  70   70 SI    8.6359    8.7496    9.1655  -0.16419E-02
  71   71 SI    2.1468   -2.4755    1.2393   0.16328E-02
  72   72 SI    9.8202   -7.1496    0.9251  -0.30174E-03
  73   73 SI    0.4388   -4.9092    7.6325  -0.25107E+00
  74   74 SI    5.6133   -9.5218    6.9380  -0.53015E-01
  75   75 SI    3.9624   -6.4958    9.5179  -0.18647E-02
  76   76 SI    8.9214   -1.3275    9.3507  -0.29494E-02
  77   77 SI   -7.7018    8.8613    2.9503  -0.83846E-05
  78   78 SI   -0.1861    2.1149    3.5555  -0.83861E-02
  79   79 SI   -9.0147    5.7300    6.6945   0.11248E-02
  80   80 SI   -3.5893    0.7026    6.6439   0.13037E-02
  81   81 SI   -5.8950    3.6505    9.1534   0.72595E-03
  82   82 SI   -0.9739    8.7508    9.0139  -0.26348E-01
  83   83 SI   -6.0662   -1.5623    3.3075  -0.31729E-02
  84   84 SI   -2.0339   -6.8587    2.4424  -0.91143E-02
  85   85 SI   -7.4660   -2.9916    7.1655  -0.10734E-02
  86   86 SI   -2.5734   -8.1329    6.8114  -0.42590E-02
  87   87 SI   -5.7898   -6.3537    9.3386  -0.80123E-02
  88   88 SI   -1.2315   -1.4430    9.6646  -0.22843E-02
  89   89 SI    1.4899    1.2299   11.8517  -0.33374E-02
  90   90 SI    6.2253    6.4129   12.0543   0.41437E-02
  91   91 SI    1.3070   -9.1611   11.9428  -0.35518E-01
  92   92 SI    6.3542   -3.7897   12.0231   0.23261E-02
  93   93 SI   -8.3957    1.2118   11.9731  -0.55818E-03
  94   94 SI   -3.5947    6.3894   11.8402  -0.14150E-01
  95   95 SI   -8.4726   -9.0785   11.5516  -0.27580E-02
  96   96 SI   -3.5735   -4.0175   12.4171  -0.64390E-01
  97   97 SI   -6.2972   -7.8140   -2.0846   0.28599E-02
  98   98 SI    3.6519   -6.7599    0.4220  -0.60503E-02
  99   99 SI    8.1804   -2.5025   -0.8211   0.24120E-03
 100  100 SI    3.7280    8.9067   14.7768  -0.61323E-01
 101  101 SI    8.7996    3.7715   14.4159  -0.16869E-02
 102  102 SI    1.1486    6.2834   17.3195  -0.59292E-02
 103  103 SI    6.3200    1.3740   17.1388  -0.32804E-02
 104  104 SI    3.6235    3.6628   19.7886  -0.71693E-02
 105  105 SI    8.4546    8.7041   19.4009  -0.18296E-01
 106  106 SI    3.7683   -1.3170   14.6879  -0.52973E-03
 107  107 SI    9.0067   -6.4736   14.2900  -0.76546E-02
 108  108 SI    1.2872   -3.9370   17.3729  -0.25390E-02
 109  109 SI    6.4097   -8.7724   16.9380  -0.22471E-03
 110  110 SI    4.3622   -6.0170   19.6759  -0.15640E-02
 111  111 SI    8.2802   -1.5643   19.6470  -0.23859E-02
 112  112 SI   -6.1067    9.0355   14.4493  -0.48412E-02
 113  113 SI   -1.1076    3.7247   14.4820  -0.22369E-02
 114  114 SI   -8.5826    6.3439   16.9546  -0.30234E-02
 115  115 SI   -3.5086    1.1408   17.3563  -0.26063E-02
 116  116 SI   -5.4610    4.4779   19.4376  -0.20018E-01
 117  117 SI   -2.3376    7.7226   19.6327  -0.12207E-01
 118  118 SI   -6.1393   -1.3817   14.8772  -0.18446E-01
 119  119 SI   -1.0770   -6.7024   14.8618   0.20769E-03
 120  120 SI   -8.6859   -4.0310   17.3957  -0.93808E-02
 121  121 SI   -3.6822   -9.1523   17.4660   0.16133E-02
 122  122 SI   -6.1250   -6.5259   20.1354  -0.88111E-02
 123  123 SI   -1.2131   -1.4796   20.1843  -0.50584E-02
 124  124 SI    1.5057    0.9957  -19.9971  -0.32753E-01
 125  125 SI    5.5182    6.8467  -20.4929  -0.25943E-02
 126  126 SI    4.3985   -8.6332  -19.2594  -0.53971E-02
 127  127 SI    5.9210   -3.2113  -19.6455   0.25635E-04
 128  128 SI   -8.7928    0.3322  -17.8614  -0.25728E-02
 129  129 SI   -5.3945    7.1025  -18.4808  -0.61583E+00
 130  130 SI   -7.5387   -8.9749  -19.0239  -0.15375E-01
 131  131 SI   -4.3507   -3.4019  -19.7936  -0.25160E-02
 132  132 SI    6.8441    5.2249  -15.0121   0.57765E-01
 133  133 SI    2.8372   -5.8069  -14.4715   0.17342E+00
 134  134 SI   -9.2382    9.2409  -13.7078   0.11367E-01
 135  135 SI   -1.9555    4.6120  -15.9602  -0.80406E+00
 136  136 SI   -8.7612   -4.9056  -15.2184   0.90259E-03
 137  137 SI   -3.5216   -5.2672  -13.7389  -0.31959E-02
 138  138 SI    5.3887    3.3719   -4.1900   0.25777E-02
 139  139 SI    7.1534   -0.9231   -7.9405   0.86537E-03
 140  140 SI   -4.6579    1.1527   -9.9613   0.75428E-01
 141  141 SI   -0.0762   -1.2270  -12.3303   0.12511E-01
 142  142 SI    2.7596   -8.4249   -5.4189   0.42547E-02
 143  143 SI   -4.2656   -4.4845   -9.3921   0.70671E-03
 144  144 SI   -9.6194   -4.9568   -5.5312   0.67379E-02
 145  145 SI   -3.7177    3.2402   -4.4613   0.37858E-02
 146  146 SI    7.5975    8.0569   -1.1767  -0.93645E-01
 147  147 SI    1.1471    7.0339   -6.4321   0.12820E+00
 148  148 SI    1.7969   -3.2106   -7.0491  -0.84221E-04
 149  149 SI   -9.2804    2.9600   -1.2721  -0.31263E-01
 150  150 SI   -8.2908    5.8757   -9.5562   0.19956E+01
 151  151 SI   -3.5072    9.4861  -11.9421  -0.15725E-02
 152  152 SI    5.3190   -0.3719  -13.4009   0.22889E-01
 153  153 SI    0.8411    0.1151   -2.1869  -0.95360E-03
 154  154 SI    2.5657    8.8445  -12.0789   0.21267E+01
 155  155 SI    8.1432  -10.1580   -6.8060   0.75563E-01
 156  156 SI   -4.3145    8.5595   -6.2537   0.52968E-01
 *******************************************************************************
 HYPERFINE COUPLING CONSTANTS (AN)
 *******************************************************************************
 POINT  ATOM  MASS N0    NUCLEAR      AN (MT)       AN (MHZ)    AN (CM**(-1))
                        G FACTOR
   1    1 O      17   -0.7575220    0.13138E+00   0.36818E+01   0.12281E-03
   2    2 O      17   -0.7575220    0.12923E+00   0.36216E+01   0.12080E-03
   3    3 O      17   -0.7575220    0.90498E-02   0.25362E+00   0.84598E-05
   4    4 O      17   -0.7575220   -0.52335E-01  -0.14667E+01  -0.48923E-04
   5    5 O      17   -0.7575220    0.45803E-02   0.12836E+00   0.42817E-05
   6    6 O      17   -0.7575220    0.28615E-01   0.80193E+00   0.26750E-04
   7    7 O      17   -0.7575220   -0.17106E-01  -0.47940E+00  -0.15991E-04
   8    8 O      17   -0.7575220   -0.14239E-02  -0.39905E-01  -0.13311E-05
   9    9 O      17   -0.7575220   -0.20570E-01  -0.57647E+00  -0.19229E-04
  10   10 O      17   -0.7575220   -0.14704E-01  -0.41209E+00  -0.13746E-04
  11   11 O      17   -0.7575220    0.25989E+00   0.72834E+01   0.24295E-03
  12   12 O      17   -0.7575220    0.66128E-02   0.18532E+00   0.61818E-05
  13   13 O      17   -0.7575220    0.64930E+00   0.18197E+02   0.60697E-03
  14   14 O      17   -0.7575220   -0.12689E+01  -0.35560E+02  -0.11862E-02
  15   15 O      17   -0.7575220    0.17784E+01   0.49841E+02   0.16625E-02
  16   16 O      17   -0.7575220   -0.49810E-02  -0.13959E+00  -0.46563E-05
  17   17 O      17   -0.7575220   -0.11759E+00  -0.32954E+01  -0.10992E-03
  18   18 O      17   -0.7575220    0.17172E+01   0.48126E+02   0.16053E-02
  19   19 O      17   -0.7575220    0.33169E+01   0.92955E+02   0.31006E-02
  20   20 O      17   -0.7575220   -0.13450E+00  -0.37694E+01  -0.12573E-03
  21   21 O      17   -0.7575220   -0.27018E+00  -0.75719E+01  -0.25257E-03
  22   22 O      17   -0.7575220    0.13154E-01   0.36865E+00   0.12297E-04
  23   23 O      17   -0.7575220   -0.72602E-02  -0.20347E+00  -0.67869E-05
  24   24 O      17   -0.7575220   -0.18379E+00  -0.51506E+01  -0.17181E-03
  25   25 O      17   -0.7575220   -0.30156E-01  -0.84513E+00  -0.28190E-04
  26   26 O      17   -0.7575220   -0.42454E+01  -0.11898E+03  -0.39686E-02
  27   27 O      17   -0.7575220   -0.49635E+00  -0.13910E+02  -0.46400E-03
  28   28 O      17   -0.7575220   -0.88784E+01  -0.24882E+03  -0.82996E-02
  29   29 O      17   -0.7575220   -0.30560E+00  -0.85645E+01  -0.28568E-03
  30   30 O      17   -0.7575220   -0.58012E+01  -0.16258E+03  -0.54231E-02
  31   31 O      17   -0.7575220   -0.18781E-01  -0.52634E+00  -0.17557E-04
  32   32 O      17   -0.7575220   -0.11155E+00  -0.31261E+01  -0.10427E-03
  33   33 O      17   -0.7575220    0.11913E+00   0.33387E+01   0.11137E-03
  34   34 O      17   -0.7575220   -0.40776E+00  -0.11427E+02  -0.38118E-03
  35   35 O      17   -0.7575220    0.24492E-01   0.68638E+00   0.22895E-04
  36   36 O      17   -0.7575220    0.45058E+00   0.12628E+02   0.42121E-03
  37   37 O      17   -0.7575220    0.52105E-02   0.14602E+00   0.48708E-05
  38   38 O      17   -0.7575220   -0.21007E+00  -0.58872E+01  -0.19638E-03
  39   39 O      17   -0.7575220   -0.32602E+00  -0.91368E+01  -0.30477E-03
  40   40 O      17   -0.7575220   -0.20922E-01  -0.58634E+00  -0.19558E-04
  41   41 O      17   -0.7575220    0.65721E-02   0.18418E+00   0.61437E-05
  42   42 O      17   -0.7575220   -0.29283E-01  -0.82066E+00  -0.27374E-04
  43   43 O      17   -0.7575220   -0.11572E-01  -0.32430E+00  -0.10817E-04
  44   44 O      17   -0.7575220    0.99726E-02   0.27948E+00   0.93225E-05
  45   45 O      17   -0.7575220   -0.19723E-02  -0.55274E-01  -0.18437E-05
  46   46 O      17   -0.7575220   -0.89134E-01  -0.24980E+01  -0.83323E-04
  47   47 O      17   -0.7575220   -0.72530E-02  -0.20327E+00  -0.67802E-05
  48   48 O      17   -0.7575220   -0.95131E-02  -0.26660E+00  -0.88929E-05
  49   49 O      17   -0.7575220   -0.30229E-01  -0.84715E+00  -0.28258E-04
  50   50 O      17   -0.7575220   -0.83321E-01  -0.23351E+01  -0.77889E-04
  51   51 O      17   -0.7575220   -0.52552E+01  -0.14728E+03  -0.49126E-02
  52   52 O      17   -0.7575220   -0.85866E+00  -0.24064E+02  -0.80269E-03
  53   53 O      17   -0.7575220    0.54242E+00   0.15201E+02   0.50706E-03
  54   54 O      17   -0.7575220   -0.10391E+00  -0.29120E+01  -0.97132E-04
  55   55 O      17   -0.7575220   -0.59002E+01  -0.16535E+03  -0.55155E-02
  56   56 O      17   -0.7575220   -0.48041E-02  -0.13463E+00  -0.44909E-05
  57   57 O      17   -0.7575220   -0.17230E+01  -0.48286E+02  -0.16106E-02
  58   58 O      17   -0.7575220   -0.23214E+01  -0.65056E+02  -0.21700E-02
  59   59 O      17   -0.7575220   -0.96433E+00  -0.27025E+02  -0.90146E-03
  60   60 O      17   -0.7575220   -0.11227E-01  -0.31463E+00  -0.10495E-04
  61   61 O      17   -0.7575220   -0.13498E+00  -0.37829E+01  -0.12618E-03
  62   62 O      17   -0.7575220   -0.61563E-01  -0.17253E+01  -0.57550E-04
  63   63 O      17   -0.7575220   -0.82779E+00  -0.23199E+02  -0.77383E-03
  64   64 O      17   -0.7575220    0.36973E-01   0.10362E+01   0.34563E-04
  65   65 SI     29   -1.1106000    0.36514E+01   0.10233E+03   0.34134E-02
  66   66 SI     29   -1.1106000    0.53671E+00   0.15041E+02   0.50172E-03
  67   67 SI     29   -1.1106000    0.72191E+00   0.20231E+02   0.67485E-03
  68   68 SI     29   -1.1106000    0.36757E+00   0.10301E+02   0.34361E-03
  69   69 SI     29   -1.1106000   -0.15081E+00  -0.42264E+01  -0.14098E-03
  70   70 SI     29   -1.1106000    0.52069E-01   0.14592E+01   0.48674E-04
  71   71 SI     29   -1.1106000   -0.51780E-01  -0.14511E+01  -0.48404E-04
  72   72 SI     29   -1.1106000    0.95690E-02   0.26817E+00   0.89452E-05
  73   73 SI     29   -1.1106000    0.79619E+01   0.22313E+03   0.74429E-02
  74   74 SI     29   -1.1106000    0.16812E+01   0.47117E+02   0.15716E-02
  75   75 SI     29   -1.1106000    0.59134E-01   0.16572E+01   0.55279E-04
  76   76 SI     29   -1.1106000    0.93533E-01   0.26213E+01   0.87436E-04
  77   77 SI     29   -1.1106000    0.26590E-03   0.74518E-02   0.24856E-06
  78   78 SI     29   -1.1106000    0.26595E+00   0.74531E+01   0.24861E-03
  79   79 SI     29   -1.1106000   -0.35669E-01  -0.99963E+00  -0.33344E-04
  80   80 SI     29   -1.1106000   -0.41344E-01  -0.11587E+01  -0.38648E-04
  81   81 SI     29   -1.1106000   -0.23022E-01  -0.64518E+00  -0.21521E-04
  82   82 SI     29   -1.1106000    0.83555E+00   0.23416E+02   0.78109E-03
  83   83 SI     29   -1.1106000    0.10062E+00   0.28199E+01   0.94060E-04
  84   84 SI     29   -1.1106000    0.28904E+00   0.81003E+01   0.27020E-03
  85   85 SI     29   -1.1106000    0.34040E-01   0.95397E+00   0.31821E-04
  86   86 SI     29   -1.1106000    0.13506E+00   0.37852E+01   0.12626E-03
  87   87 SI     29   -1.1106000    0.25409E+00   0.71209E+01   0.23753E-03
  88   88 SI     29   -1.1106000    0.72441E-01   0.20301E+01   0.67718E-04
  89   89 SI     29   -1.1106000    0.10584E+00   0.29661E+01   0.98939E-04
  90   90 SI     29   -1.1106000   -0.13141E+00  -0.36827E+01  -0.12284E-03
  91   91 SI     29   -1.1106000    0.11264E+01   0.31567E+02   0.10530E-02
  92   92 SI     29   -1.1106000   -0.73766E-01  -0.20673E+01  -0.68958E-04
  93   93 SI     29   -1.1106000    0.17701E-01   0.49608E+00   0.16547E-04
  94   94 SI     29   -1.1106000    0.44874E+00   0.12576E+02   0.41949E-03
  95   95 SI     29   -1.1106000    0.87465E-01   0.24512E+01   0.81763E-04
  96   96 SI     29   -1.1106000    0.20420E+01   0.57226E+02   0.19088E-02
  97   97 SI     29   -1.1106000   -0.90693E-01  -0.25417E+01  -0.84781E-04
  98   98 SI     29   -1.1106000    0.19187E+00   0.53771E+01   0.17936E-03
  99   99 SI     29   -1.1106000   -0.76492E-02  -0.21437E+00  -0.71506E-05
 100  100 SI     29   -1.1106000    0.19447E+01   0.54501E+02   0.18179E-02
 101  101 SI     29   -1.1106000    0.53496E-01   0.14992E+01   0.50009E-04
 102  102 SI     29   -1.1106000    0.18803E+00   0.52695E+01   0.17577E-03
 103  103 SI     29   -1.1106000    0.10403E+00   0.29155E+01   0.97249E-04
 104  104 SI     29   -1.1106000    0.22736E+00   0.63717E+01   0.21254E-03
 105  105 SI     29   -1.1106000    0.58021E+00   0.16260E+02   0.54239E-03
 106  106 SI     29   -1.1106000    0.16799E-01   0.47079E+00   0.15704E-04
 107  107 SI     29   -1.1106000    0.24275E+00   0.68029E+01   0.22692E-03
 108  108 SI     29   -1.1106000    0.80520E-01   0.22566E+01   0.75271E-04
 109  109 SI     29   -1.1106000    0.71262E-02   0.19971E+00   0.66616E-05
 110  110 SI     29   -1.1106000    0.49599E-01   0.13900E+01   0.46365E-04
 111  111 SI     29   -1.1106000    0.75664E-01   0.21205E+01   0.70732E-04
 112  112 SI     29   -1.1106000    0.15353E+00   0.43026E+01   0.14352E-03
 113  113 SI     29   -1.1106000    0.70938E-01   0.19880E+01   0.66313E-04
 114  114 SI     29   -1.1106000    0.95880E-01   0.26870E+01   0.89630E-04
 115  115 SI     29   -1.1106000    0.82653E-01   0.23164E+01   0.77265E-04
 116  116 SI     29   -1.1106000    0.63483E+00   0.17791E+02   0.59345E-03
 117  117 SI     29   -1.1106000    0.38711E+00   0.10849E+02   0.36188E-03
 118  118 SI     29   -1.1106000    0.58497E+00   0.16394E+02   0.54684E-03
 119  119 SI     29   -1.1106000   -0.65865E-02  -0.18459E+00  -0.61572E-05
 120  120 SI     29   -1.1106000    0.29749E+00   0.83371E+01   0.27810E-03
 121  121 SI     29   -1.1106000   -0.51162E-01  -0.14338E+01  -0.47827E-04
 122  122 SI     29   -1.1106000    0.27942E+00   0.78308E+01   0.26121E-03
 123  123 SI     29   -1.1106000    0.16041E+00   0.44956E+01   0.14996E-03
 124  124 SI     29   -1.1106000    0.10387E+01   0.29109E+02   0.97096E-03
 125  125 SI     29   -1.1106000    0.82271E-01   0.23056E+01   0.76908E-04
 126  126 SI     29   -1.1106000    0.17116E+00   0.47966E+01   0.16000E-03
 127  127 SI     29   -1.1106000   -0.81296E-03  -0.22783E-01  -0.75997E-06
 128  128 SI     29   -1.1106000    0.81590E-01   0.22866E+01   0.76272E-04
 129  129 SI     29   -1.1106000    0.19530E+02   0.54732E+03   0.18256E-01
 130  130 SI     29   -1.1106000    0.48759E+00   0.13665E+02   0.45581E-03
 131  131 SI     29   -1.1106000    0.79788E-01   0.22360E+01   0.74587E-04
 132  132 SI     29   -1.1106000   -0.18319E+01  -0.51339E+02  -0.17125E-02
 133  133 SI     29   -1.1106000   -0.54995E+01  -0.15412E+03  -0.51410E-02
 134  134 SI     29   -1.1106000   -0.36048E+00  -0.10103E+02  -0.33698E-03
 135  135 SI     29   -1.1106000    0.25499E+02   0.71460E+03   0.23837E-01
 136  136 SI     29   -1.1106000   -0.28624E-01  -0.80217E+00  -0.26758E-04
 137  137 SI     29   -1.1106000    0.10135E+00   0.28403E+01   0.94743E-04
 138  138 SI     29   -1.1106000   -0.81745E-01  -0.22909E+01  -0.76416E-04
 139  139 SI     29   -1.1106000   -0.27443E-01  -0.76909E+00  -0.25654E-04
 140  140 SI     29   -1.1106000   -0.23920E+01  -0.67037E+02  -0.22361E-02
 141  141 SI     29   -1.1106000   -0.39676E+00  -0.11119E+02  -0.37089E-03
 142  142 SI     29   -1.1106000   -0.13493E+00  -0.37813E+01  -0.12613E-03
 143  143 SI     29   -1.1106000   -0.22412E-01  -0.62808E+00  -0.20951E-04
 144  144 SI     29   -1.1106000   -0.21368E+00  -0.59882E+01  -0.19975E-03
 145  145 SI     29   -1.1106000   -0.12006E+00  -0.33646E+01  -0.11223E-03
 146  146 SI     29   -1.1106000    0.29697E+01   0.83226E+02   0.27761E-02
 147  147 SI     29   -1.1106000   -0.40655E+01  -0.11393E+03  -0.38004E-02
 148  148 SI     29   -1.1106000    0.26709E-02   0.74851E-01   0.24968E-05
 149  149 SI     29   -1.1106000    0.99144E+00   0.27785E+02   0.92681E-03
 150  150 SI     29   -1.1106000   -0.63284E+02  -0.17735E+04  -0.59159E-01
 151  151 SI     29   -1.1106000    0.49868E-01   0.13975E+01   0.46617E-04
 152  152 SI     29   -1.1106000   -0.72588E+00  -0.20343E+02  -0.67856E-03
 153  153 SI     29   -1.1106000    0.30241E-01   0.84751E+00   0.28270E-04
 154  154 SI     29   -1.1106000   -0.67444E+02  -0.18901E+04  -0.63048E-01
 155  155 SI     29   -1.1106000   -0.23963E+01  -0.67156E+02  -0.22401E-02
 156  156 SI     29   -1.1106000   -0.16798E+01  -0.47075E+02  -0.15703E-02

  CONVERSION FACTORS 
     AN (MILLI T)        28.554470 * GN * P(SPIN) (BOHR**(-3))
     AN (MHZ)            28.024940 * AN (MILLI T) 
     AN (CM**(-1))   0.3335641E-04 * AN (MHZ) 
 TTTTTTTTTTTTTTTTTTTTTTTTTTTTTT ISOTROPIC   TELAPSE   125797.60 TCPU   125601.07
 ENDPROP   
 TTTTTTTTTTTTTTTTTTTTTTTTTTTTTT END         TELAPSE   125797.60 TCPU   125601.07
 EEEEEEEEEE TERMINATION  DATE 12 05 2015 TIME 21:54:39.4
