
         
 *******************************************************************************
 *                                                                             *
 *                                CRYSTAL09                                    *
 *                              public : 2.0                                   *
 *                      December 10th, 2012 - sequential executable            *
 *                                                                             *
 *                                                                             *
 *                                                                             *
 *                              MAIN AUTHORS                                   *
 *                                                                             *
 *    R. DOVESI(1,10), V.R. SAUNDERS(2), C. ROETTI(1,10), R. ORLANDO (1,3),    *
 *  C.M. ZICOVICH-WILSON(1,4), F. PASCALE(5), B. CIVALLERI(1,10), K. DOLL(6),  *
 *       N.M. HARRISON(2,7), I. J. BUSH(2), Ph. D'ARCO(8), M. LLUNELL(9)       *
 *                                                                             *
 * (1) THEORETICAL CHEMISTRY GROUP - UNIVERSITA' DI TORINO - TORINO (ITALY)    *
 *      http://www.crystal.unito.it                                            *
 * (2) COMPUTATIONAL SCIENCE & ENGINEERING DEPARTMENT - CCLRC DARESBURY (UK)   *
 *     http://www.cse.clrc.ac.uk/cmg/CRYSTAL/                                  *
 * (3) UNIVERSITA' DEL PIEMONTE ORIENTALE - ALESSANDRIA (ITALY)                *
 * (4) UNIVERSIDAD AUTONOMA DEL ESTADO DE MORELOS - CUERNAVACA (MEXICO)        *
 * (5) UNIVERSITE' HENRI POINCARE' - NANCY (FRANCE)                            *
 * (6) MPI FUER FESTKOERPERFORSCHUNG - STUTTGART (GERMANY)                     *
 * (7) IMPERIAL COLLEGE - LONDON (UK)                                          *
 * (8) UNIVERSITE' PIERRE ET MARIE CURIE - PARIS (FRANCE)                      *
 * (9) UNIVERSIDAD DE BARCELONA - BARCELONA (SPAIN)                            *
 *(10) NIS - NANOSTRUCTURED INTERFACES AND SURFACES - TORINO (ITALY)           *
 *     http://www.crystal.unito.it                                             *
 *******************************************************************************
 EEEEEEEEEE STARTING  DATE 10 08 2015 TIME 12:02:21.9

 *******************************************************************************
 Created with astools                                                            
 CRYSTAL - PROPERTIES - TYPE OF CALCULATION :  UNRESTRICTED OPEN SHELL
 *******************************************************************************
 SPIN POLARIZED SYSTEM: SUMMED SPIN DENSITY   -2.00000000

 KOHN-SHAM HAMILTONIAN

 (EXCHANGE)[CORRELATION] FUNCTIONAL:(BECKE)[LEE-YANG-PARR]

 NON-LOCAL WEIGHTING FACTOR (EXCHANGE) =           0.9000
 NON-LOCAL WEIGHTING FACTOR [CORRELATION] =        0.8100

 HYBRID EXCHANGE - PERCENTAGE OF FOCK EXCHANGE    20.0000

 SPIN POLARIZED DFT SELECTED

 DIRECT LATTICE VECTOR COMPONENTS (ANGSTROM)
        10.59622    0.00000    0.00000
         0.00000   10.58937    0.00000
         0.00000    0.00000   21.67319

 LATTICE PARAMETERS  (ANGSTROM AND DEGREES) - PRIMITIVE CELL
       A          B          C         ALPHA      BETA     GAMMA        VOLUME
   10.59622   10.58937   21.67319     47.6259   47.6259   47.6259    2431.89149
 *******************************************************************************
 N. OF ATOMS PER CELL      160  COULOMB OVERLAP TOL         (T1) 10** -8
 NUMBER OF SHELLS         1248  COULOMB PENETRATION TOL     (T2) 10** -8
 NUMBER OF AO             3424  EXCHANGE OVERLAP TOL        (T3) 10** -8
 N. OF ELECTRONS PER CELL 1792  EXCHANGE PSEUDO OVP (F(G))  (T4) 10** -8
 CORE ELECTRONS PER CELL   768  EXCHANGE PSEUDO OVP (P(G))  (T5) 10**-16
 N. OF SYMMETRY OPERATORS    1  POLE ORDER IN MONO ZONE                4
 CORE  PSEUDO POTENTIAL         TOL. ON PSEUDO              (TP) 10**- 6
 *******************************************************************************
   ATOM N.AT.  SHELL    X(A)      Y(A)      Z(A)      EXAD       N.ELECT.
 *******************************************************************************
    1    8 O     8    -1.539    -2.659    -8.550   2.535E-01       9.288
    2    8 O     8    -5.252     3.034    -8.715   2.535E-01       9.738
    3    8 O     8    -1.891    -2.297    10.562   2.535E-01       8.982
    4    8 O     8     1.876     1.852   -10.068   2.535E-01       9.315
    5    8 O     8     3.166    -0.256    -8.230   2.535E-01       9.200
    6    8 O     8     2.181    -4.143    -7.964   2.535E-01       9.600
    7    8 O     8     5.244    -2.817    -9.217   2.535E-01       9.192
    8    8 O     8    -2.810     0.058    -9.073   2.535E-01       9.343
    9    8 O     8    -3.304    -4.168   -10.224   2.535E-01       9.406
   10    8 O     8     2.501    -2.800   -10.057   2.535E-01       9.270
   11    8 O     8     0.018    -0.373   -10.207   2.535E-01       9.075
   12    8 O     8     5.099     0.892   -10.088   2.535E-01       9.222
   13    8 O     8    -3.407     4.682    -7.452   2.535E-01       9.288
   14    8 O     8    -1.991     4.325    -9.374   2.535E-01       9.477
   15    8 O     8     4.679    -5.181    -7.593   2.535E-01       9.387
   16    8 O     8     2.938     4.550    -9.601   2.535E-01       9.344
   17    8 O     8     0.537    -4.125   -10.468   2.535E-01       9.181
   18    8 O     8    -2.601    -0.826    -1.381   2.535E-01       9.208
   19    8 O     8    -2.265     1.800    -2.587   2.535E-01       9.297
   20    8 O     8    -4.930    -1.893    -2.524   2.535E-01       9.594
   21    8 O     8     0.595     2.414    -2.091   2.535E-01       9.351
   22    8 O     8    -1.433    -1.357    -6.112   2.535E-01       9.377
   23    8 O     8    -4.560    -3.214    -0.106   2.535E-01       9.306
   24    8 O     8    -1.988    -4.209    -5.037   2.535E-01       9.325
   25    8 O     8     4.797     5.092     0.173   2.535E-01       8.892
   26    8 O     8    -4.271    -0.844    -7.331   2.535E-01       9.587
   27    8 O     8     3.269     3.826    -1.515   2.535E-01       9.175
   28    8 O     8     0.301     0.057    -7.375   2.535E-01       9.449
   29    8 O     8     2.256    -3.283    -3.993   2.535E-01       9.347
   30    8 O     8    -2.943     2.095     0.133   2.535E-01       8.958
   31    8 O     8    -4.931     0.533    -0.921   2.535E-01       9.300
   32    8 O     8    -0.679    -0.035     0.047   2.535E-01       9.129
   33    8 O     8    -0.322    -5.018    -8.090   2.535E-01       9.535
   34    8 O     8    -3.606     4.052    -4.822   2.535E-01       9.389
   35    8 O     8    -3.895    -3.250    -6.757   2.535E-01       9.264
   36    8 O     8    -0.652     4.408     0.112   2.535E-01       8.919
   37    8 O     8     0.814    -4.659    -1.603   2.535E-01       9.260
   38    8 O     8     2.570    -0.672    -5.401   2.535E-01       9.357
   39    8 O     8     2.755     2.012    -6.159   2.535E-01       9.420
   40    8 O     8    -0.277    -2.109    -3.920   2.535E-01       9.401
   41    8 O     8     1.066     5.243    -4.482   2.535E-01       9.440
   42    8 O     8     1.449    -4.626     0.905   2.535E-01       8.945
   43    8 O     8    -2.450     1.835    -7.093   2.535E-01       9.433
   44    8 O     8     1.205    -1.030    -2.066   2.535E-01       9.381
   45    8 O     8    -4.670    -3.977    -4.184   2.535E-01       9.320
   46    8 O     8     2.876     2.094    -3.504   2.535E-01       9.493
   47    8 O     8     0.079     1.004    -4.997   2.535E-01       9.388
   48    8 O     8    -5.217     1.829    -3.642   2.535E-01       9.337
   49    8 O     8    -2.781    -3.884    -2.127   2.535E-01       9.273
   50    8 O     8     0.255     2.934    -7.899   2.535E-01       9.574
   51    8 O     8     4.218     4.591    -5.051   2.535E-01       9.431
   52    8 O     8    -0.915     3.563    -5.716   2.535E-01       9.517
   53    8 O     8     3.871    -2.926    -5.909   2.535E-01       9.390
   54    8 O     8    -1.053     4.318    -3.183   2.535E-01       9.291
   55    8 O     8     3.887    -3.565    -2.145   2.535E-01       9.316
   56    8 O     8     3.086    -1.865    -0.455   2.535E-01       9.196
   57    8 O     8     5.212    -0.794    -4.993   2.535E-01       9.611
   58    8 O     8     2.200     4.320    -6.733   2.535E-01       9.605
   59    8 O     8     0.784    -2.819    -6.339   2.535E-01       9.473
   60    8 O     8     5.159     1.671    -6.596   2.535E-01       9.365
   61    8 O     8    -2.979    -0.422    -3.996   2.535E-01       9.362
   62    8 O     8    -4.634     4.683    -2.405   2.535E-01       9.368
   63    8 O     8     1.589     1.265    -0.173   2.535E-01       9.108
   64    8 O     8     3.771    -0.292    -2.999   2.535E-01       9.456
   65   14 SI    6     0.652     0.640     1.029   6.000E-01      13.104
   66   14 SI    6     3.638     3.883     0.167   6.000E-01      13.108
   67   14 SI    6     2.087     4.661     1.756   6.000E-01      13.547
   68   14 SI    6     4.522     2.200     1.677   6.000E-01      14.099
   69   14 SI    6     0.742     3.503     3.340   6.000E-01      14.074
   70   14 SI    6     3.265     0.840     3.250   6.000E-01      13.986
   71   14 SI    6     1.978     2.099     4.729   6.000E-01      14.002
   72   14 SI    6     4.584     4.585     4.826   6.000E-01      13.997
   73   14 SI    6     0.070    -4.688    -0.003   6.000E-01      12.718
   74   14 SI    6     3.371    -1.700     1.288   6.000E-01      13.823
   75   14 SI    6     1.732    -0.735     2.447   6.000E-01      14.185
   76   14 SI    6     4.416    -3.307     2.520   6.000E-01      14.160
   77   14 SI    6     0.227    -2.259     3.262   6.000E-01      14.008
   78   14 SI    6     3.131    -4.861     3.529   6.000E-01      14.058
   79   14 SI    6     1.787    -3.351     4.630   6.000E-01      13.976
   80   14 SI    6     4.559    -0.488     4.696   6.000E-01      13.996
   81   14 SI    6    -4.332     1.154     0.556   6.000E-01      13.068
   82   14 SI    6    -1.872     3.371     0.833   6.000E-01      13.444
   83   14 SI    6    -3.293     4.762     2.082   6.000E-01      14.054
   84   14 SI    6    -0.684     2.043     2.295   6.000E-01      14.052
   85   14 SI    6    -4.759     3.363     3.284   6.000E-01      14.050
   86   14 SI    6    -2.185     0.580     3.321   6.000E-01      14.016
   87   14 SI    6    -3.477     1.963     4.656   6.000E-01      13.978
   88   14 SI    6    -0.698     4.756     4.664   6.000E-01      13.972
   89   14 SI    6    -4.873    -4.438     1.075   6.000E-01      13.048
   90   14 SI    6    -1.884    -1.372     0.090   6.000E-01      13.428
   91   14 SI    6    -3.450    -0.635     1.736   6.000E-01      14.290
   92   14 SI    6    -1.055    -3.158     1.419   6.000E-01      13.987
   93   14 SI    6    -4.659    -1.809     3.386   6.000E-01      13.991
   94   14 SI    6    -1.972    -4.393     3.322   6.000E-01      14.063
   95   14 SI    6    -3.386    -3.174     4.746   6.000E-01      13.981
   96   14 SI    6    -0.827    -0.725     4.675   6.000E-01      13.983
   97   14 SI    6     0.583     0.652     5.963   6.000E-01      14.000
   98   14 SI    6     3.264     3.323     6.206   6.000E-01      13.985
   99   14 SI    6     0.594    -4.593     6.104   6.000E-01      14.011
  100   14 SI    6     3.178    -1.953     5.932   6.000E-01      14.002
  101   14 SI    6    -4.752     0.743     6.171   6.000E-01      13.987
  102   14 SI    6    -2.046     3.289     5.911   6.000E-01      13.985
  103   14 SI    6    -4.793    -4.489     6.064   6.000E-01      13.995
  104   14 SI    6    -2.121    -1.874     6.180   6.000E-01      14.002
  105   14 SI    6     1.912     4.700     7.469   6.000E-01      13.985
  106   14 SI    6     4.577     2.057     7.585   6.000E-01      13.968
  107   14 SI    6     0.456     3.350     8.627   6.000E-01      14.008
  108   14 SI    6     3.299     0.636     8.848   6.000E-01      14.193
  109   14 SI    6     1.925     2.138     9.863   6.000E-01      13.848
  110   14 SI    6     4.671     4.635    10.185   6.000E-01      14.729
  111   14 SI    6     1.971    -0.604     7.382   6.000E-01      13.988
  112   14 SI    6     4.448    -3.193     7.517   6.000E-01      13.980
  113   14 SI    6     0.635    -1.913     8.759   6.000E-01      14.121
  114   14 SI    6     3.197    -4.631     8.937   6.000E-01      14.061
  115   14 SI    6     1.712    -3.363    10.244   6.000E-01      13.067
  116   14 SI    6     4.395    -0.521    10.589   6.000E-01      13.674
  117   14 SI    6    -3.432     4.645     7.177   6.000E-01      13.975
  118   14 SI    6    -0.811     1.893     7.363   6.000E-01      13.977
  119   14 SI    6    -4.547     3.424     8.765   6.000E-01      14.042
  120   14 SI    6    -2.108     0.730     8.996   6.000E-01      14.006
  121   14 SI    6    -2.922     2.599    10.214   6.000E-01      14.354
  122   14 SI    6    -1.175     4.281     9.896   6.000E-01      14.330
  123   14 SI    6    -3.451    -0.590     7.585   6.000E-01      14.028
  124   14 SI    6    -0.688    -3.213     7.383   6.000E-01      14.011
  125   14 SI    6    -4.860    -1.803     8.993   6.000E-01      14.116
  126   14 SI    6    -2.049    -4.695     8.481   6.000E-01      14.087
  127   14 SI    6    -3.201    -3.256     9.893   6.000E-01      13.187
  128   14 SI    6    -0.890    -0.917    10.178   6.000E-01      13.088
  129  272 HF   11    -1.717     0.075    -7.482   2.055E-01       9.588
  130  272 HF   11    -1.301    -4.444    -9.821   2.055E-01       9.452
  131  272 HF   11    -3.603    -2.452    -8.485   2.055E-01       9.456
  132  272 HF   11     0.580    -2.921    -8.417   2.055E-01       9.736
  133  272 HF   11     3.818     2.579   -10.045   2.055E-01       9.918
  134  272 HF   11     1.367     4.526    -8.451   2.055E-01       9.147
  135  272 HF   11     3.806    -4.145    -9.247   2.055E-01       9.408
  136  272 HF   11    -1.695     3.640    -7.539   2.055E-01       9.194
  137  272 HF   11     1.442     0.213    -8.940   2.055E-01       9.589
  138  272 HF   11    -3.969     4.345    -9.537   2.055E-01       9.689
  139  272 HF   11    -4.385     1.159    -8.380   2.055E-01       9.481
  140  272 HF   11    -0.985     1.662    -1.181   2.055E-01       9.920
  141  272 HF   11    -4.723    -3.956    -2.026   2.055E-01       9.434
  142  272 HF   11    -2.715    -5.206    -3.518   2.055E-01       9.571
  143  272 HF   11     1.071     4.197    -2.749   2.055E-01       9.661
  144  272 HF   11     2.094     0.855    -2.092   2.055E-01       9.619
  145  272 HF   11     2.053    -2.853    -1.929   2.055E-01       9.663
  146  272 HF   11    -4.591    -5.089    -5.984   2.055E-01       9.512
  147  272 HF   11     5.064    -1.439    -0.543   2.055E-01       9.673
  148  272 HF   11     4.471     3.620    -3.232   2.055E-01       9.414
  149  272 HF   11    -0.796    -1.022    -2.332   2.055E-01       9.924
  150  272 HF   11     0.862     2.516    -5.933   2.055E-01       9.502
  151  272 HF   11     0.548    -0.886    -5.405   2.055E-01       9.432
  152  272 HF   11     2.593    -4.487    -5.740   2.055E-01       9.457
  153  272 HF   11     3.909     0.951    -4.909   2.055E-01       9.503
  154  272 HF   11    -0.116    -3.844    -4.886   2.055E-01       9.545
  155  272 HF   11    -2.072     2.843    -4.233   2.055E-01       9.652
  156  272 HF   11    -4.488     0.066    -2.852   2.055E-01       9.331
  157  272 HF   11     4.133    -1.129    -6.822   2.055E-01       9.723
  158  272 HF   11    -3.317    -1.534    -5.540   2.055E-01       9.511
  159  272 HF   11     4.120     3.346    -7.097   2.055E-01       9.688
  160  272 HF   11     4.056    -2.249    -3.880   2.055E-01       9.355
 *******************************************************************************
 DE(K)                   0.000E+00  ENERGY LEVEL SHIFTING        0.00000
 TOTAL ENERGY -2.4909207373063E+04  CONVERGENCE ON ENER        1.044E-08
 KIN. ENERGY   2.3762984664483E+04  VIR. COEFF.           1.01138811E+00
 N. OF SCF CYCLES              161  FERMI ENERGY              -0.442E-01
 WEIGHT OF F(I) IN F(I+1)      97
 SHRINK. FACT.(MONKH.)     2  2  2  SHRINKING FACTOR(GILAT NET)        2
 NUMBER OF K POINTS IN THE IBZ   8  CELL VOLUME (A.U.)       16411.21748
 *******************************************************************************

 GCALCO - MAX INDICES DIRECT LATTICE VECTOR    18    19     9
 NO.OF VECTORS CREATED 6999 STARS 1062 RMAX   301.31372 BOHR

 DIMENSIONS  P(G)= 9133954 F(G)= 1619961 P(G),F(G) (IRR) 4575153
 MAX G-VECTOR INDEX FOR 1- AND 2-ELECTRON INTEGRALS  39


 CAPPA:IS1  2;IS2  2;IS3  2; K PTS MONK NET    8; SYMMOPS: K SPACE  2;G SPACE  1


 CAPPA:IS1  6;IS2  6;IS3  3; K PTS MONK NET   56; SYMMOPS: K SPACE  2;G SPACE  1

 *******************************************************************************
 RESTART WITH NEW K POINTS NET
 *******************************************************************************
 POINTS IN THE IBZ                  56 POINTS(GILAT NET)                56
 SHRINK FACTORS(MONK.)         6  6  3 SHRINK FACTOR(GILAT)              6
 *******************************************************************************
 *** K POINTS COORDINATES (OBLIQUE COORDINATES IN UNITS OF IS =  6)
   1-R(  0  0  0)   2-C(  1  0  0)   3-C(  2  0  0)   4-R(  3  0  0)
   5-C(  0  1  0)   6-C(  1  1  0)   7-C(  2  1  0)   8-C(  3  1  0)
   9-C(  4  1  0)  10-C(  5  1  0)  11-C(  0  2  0)  12-C(  1  2  0)
  13-C(  2  2  0)  14-C(  3  2  0)  15-C(  4  2  0)  16-C(  5  2  0)
  17-R(  0  3  0)  18-C(  1  3  0)  19-C(  2  3  0)  20-R(  3  3  0)
  21-C(  0  0  1)  22-C(  1  0  1)  23-C(  2  0  1)  24-C(  3  0  1)
  25-C(  4  0  1)  26-C(  5  0  1)  27-C(  0  1  1)  28-C(  1  1  1)
  29-C(  2  1  1)  30-C(  3  1  1)  31-C(  4  1  1)  32-C(  5  1  1)
  33-C(  0  2  1)  34-C(  1  2  1)  35-C(  2  2  1)  36-C(  3  2  1)
  37-C(  4  2  1)  38-C(  5  2  1)  39-C(  0  3  1)  40-C(  1  3  1)
  41-C(  2  3  1)  42-C(  3  3  1)  43-C(  4  3  1)  44-C(  5  3  1)
  45-C(  0  4  1)  46-C(  1  4  1)  47-C(  2  4  1)  48-C(  3  4  1)
  49-C(  4  4  1)  50-C(  5  4  1)  51-C(  0  5  1)  52-C(  1  5  1)
  53-C(  2  5  1)  54-C(  3  5  1)  55-C(  4  5  1)  56-C(  5  5  1)

 FERMI ENERGY AND DENSITY MATRIX CALCULATION ON COMPUTED EIGENVECTORS
 DENSITY MATRIX AT SCF CYCLE (161+1)


    ALPHA      ELECTRONS
 INSULATING STATE
 TOP OF VALENCE BANDS -    BAND    895; K   22; EIG -4.9629073E-02 AU
 TOP OF VALENCE BANDS -    BAND    895; K    1; EIG -4.9734836E-02 AU
 BOTTOM OF VIRTUAL BANDS - BAND    896; K    1; EIG -2.5392117E-02 AU

    BETA       ELECTRONS
 INSULATING STATE
 TOP OF VALENCE BANDS -    BAND    897; K   17; EIG -4.4210399E-02 AU
 TOP OF VALENCE BANDS -    BAND    897; K    1; EIG -1.6140594E-02 AU
 BOTTOM OF VIRTUAL BANDS - BAND    898; K   21; EIG -2.3588687E-02 AU
 BOTTOM OF VIRTUAL BANDS - BAND    898; K    1; EIG -1.0597498E-02 AU

 CORE DENSITY MATRIX CALCULATION
 TTTTTTTTTTTTTTTTTTTTTTTTTTTTTT NEWK        TELAPSE    50428.55 TCPU   222862.67
 TTTTTTTTTTTTTTTTTTTTTTTTTTTTTT SETPRINT    TELAPSE    50428.56 TCPU   222862.67

 *******************************************************************************
 HYPERFINE ELECTRON-NUCLEAR SPIN INTERACTION TENSOR
 ANISOTROPIC COMPONENTS - THE TENSOR IS TRACELESS
 *******************************************************************************


 POINT   ATOM  MASS NO  NUCLEAR G FACTOR
    1    1 O      17      -0.7575220

 TENSOR IN ORIGINAL CARTESIAN AXES
 XX -5.799212E-02 YY  5.326352E-02 ZZ  4.728601E-03 XY  2.027577E-02 XZ  4.796286E-02 YZ  1.248738E-02

 TENSOR IN PRINCIPAL AXIS SYSTEM
 AA -8.498811E-02 BB  6.618936E-02 CC  1.879874E-02

 PRINCIPAL AXES
         X             Y             Z
 A  8.835067E-01 -8.801816E-02 -4.600747E-01
 B  2.985314E-01  8.626792E-01  4.082445E-01
 C  3.609640E-01 -4.980335E-01  7.884590E-01

 ANGLES BETWEEN PRINCIPAL AXES AND ORIGINAL AXES (DEGREES)
         X             Y             Z
 A     27.931692     95.049603    117.391931
 B     72.630586     30.381251     65.905392
 C     68.840591    119.869984     37.958263


 POINT   ATOM  MASS NO  NUCLEAR G FACTOR
    2    2 O      17      -0.7575220

 TENSOR IN ORIGINAL CARTESIAN AXES
 XX  5.930916E-02 YY -3.292967E-02 ZZ -2.637949E-02 XY -2.377118E-03 XZ  1.051416E-02 YZ -1.808632E-03

 TENSOR IN PRINCIPAL AXIS SYSTEM
 AA  6.065139E-02 BB -3.339723E-02 CC -2.725416E-02

 PRINCIPAL AXES
         X             Y             Z
 A  9.923367E-01 -2.753508E-02  1.204559E-01
 B -4.178776E-03  9.668183E-01  2.554310E-01
 C -1.234923E-01 -2.539769E-01  9.592942E-01

 ANGLES BETWEEN PRINCIPAL AXES AND ORIGINAL AXES (DEGREES)
         X             Y             Z
 A      7.097776     91.577843     83.081585
 B     90.239427     14.801151     75.200875
 C     97.093695    104.712971     16.404011


 POINT   ATOM  MASS NO  NUCLEAR G FACTOR
    3    3 O      17      -0.7575220

 TENSOR IN ORIGINAL CARTESIAN AXES
 XX  2.037162E-03 YY  2.358917E-03 ZZ -4.396079E-03 XY  4.019514E-03 XZ -2.748170E-03 YZ  3.335267E-03

 TENSOR IN PRINCIPAL AXIS SYSTEM
 AA  1.352183E-03 BB  6.250788E-03 CC -7.602971E-03

 PRINCIPAL AXES
         X             Y             Z
 A  6.208857E-01 -5.117820E-01 -5.937846E-01
 B  6.683269E-01  7.414630E-01  5.976432E-02
 C  4.096831E-01 -4.339490E-01  8.024014E-01

 ANGLES BETWEEN PRINCIPAL AXES AND ORIGINAL AXES (DEGREES)
         X             Y             Z
 A     51.619161    120.782600    126.426039
 B     48.061938     42.143806     86.573715
 C     65.815074    115.718438     36.639963


 POINT   ATOM  MASS NO  NUCLEAR G FACTOR
    4    4 O      17      -0.7575220

 TENSOR IN ORIGINAL CARTESIAN AXES
 XX -2.295737E-03 YY -5.918168E-03 ZZ  8.213905E-03 XY  1.504159E-02 XZ -2.191220E-02 YZ -1.567016E-02

 TENSOR IN PRINCIPAL AXIS SYSTEM
 AA  3.652464E-02 BB -2.056290E-02 CC -1.596174E-02

 PRINCIPAL AXES
         X             Y             Z
 A  5.648622E-01  4.544775E-01 -6.887532E-01
 B -8.182710E-01  4.163187E-01 -3.963726E-01
 C  1.065984E-01  7.874827E-01  6.070484E-01

 ANGLES BETWEEN PRINCIPAL AXES AND ORIGINAL AXES (DEGREES)
         X             Y             Z
 A     55.607278     62.968682    133.531493
 B    144.912091     65.397612    113.351609
 C     83.880735     38.049117     52.623610


 POINT   ATOM  MASS NO  NUCLEAR G FACTOR
    5    5 O      17      -0.7575220

 TENSOR IN ORIGINAL CARTESIAN AXES
 XX  1.344969E-02 YY  1.393639E-02 ZZ -2.738609E-02 XY  1.623627E-02 XZ  7.012295E-03 YZ -1.144236E-02

 TENSOR IN PRINCIPAL AXIS SYSTEM
 AA  2.973192E-03 BB  3.013055E-02 CC -3.310374E-02

 PRINCIPAL AXES
         X             Y             Z
 A  6.880013E-01 -6.122253E-01  3.896592E-01
 B  6.827507E-01  7.280502E-01 -6.159898E-02
 C -2.459790E-01  3.084203E-01  9.188968E-01

 ANGLES BETWEEN PRINCIPAL AXES AND ORIGINAL AXES (DEGREES)
         X             Y             Z
 A     46.527895    127.750583     67.066703
 B     46.941034     43.276817     93.531597
 C    104.239698     72.035945     23.234675


 POINT   ATOM  MASS NO  NUCLEAR G FACTOR
    6    6 O      17      -0.7575220

 TENSOR IN ORIGINAL CARTESIAN AXES
 XX -1.011610E-02 YY  1.357898E-02 ZZ -3.462873E-03 XY -8.709923E-03 XZ -1.197432E-02 YZ -5.048075E-03

 TENSOR IN PRINCIPAL AXIS SYSTEM
 AA -2.202431E-02 BB  1.651537E-02 CC  5.508942E-03

 PRINCIPAL AXES
         X             Y             Z
 A  7.738003E-01  2.705112E-01  5.727624E-01
 B -2.796834E-01  9.572180E-01 -7.423527E-02
 C -5.683400E-01 -1.027488E-01  8.163531E-01

 ANGLES BETWEEN PRINCIPAL AXES AND ORIGINAL AXES (DEGREES)
         X             Y             Z
 A     39.303612     74.305309     55.056917
 B    106.241308     16.820104     94.257284
 C    124.634549     95.897483     35.278629


 POINT   ATOM  MASS NO  NUCLEAR G FACTOR
    7    7 O      17      -0.7575220

 TENSOR IN ORIGINAL CARTESIAN AXES
 XX -2.879241E-02 YY  3.361256E-04 ZZ  2.845628E-02 XY -1.444113E-02 XZ -4.429381E-02 YZ  3.528174E-02

 TENSOR IN PRINCIPAL AXIS SYSTEM
 AA -5.334281E-02 BB -1.916128E-02 CC  7.250409E-02

 PRINCIPAL AXES
         X             Y             Z
 A  8.552013E-01 -1.037009E-01  5.078158E-01
 B  3.177662E-01  8.789392E-01 -3.556551E-01
 C -4.094574E-01  4.655234E-01  7.846226E-01

 ANGLES BETWEEN PRINCIPAL AXES AND ORIGINAL AXES (DEGREES)
         X             Y             Z
 A     31.218018     95.952324     59.481552
 B     71.472114     28.485338    110.833600
 C    114.170756     62.255900     38.314215


 POINT   ATOM  MASS NO  NUCLEAR G FACTOR
    8    8 O      17      -0.7575220

 TENSOR IN ORIGINAL CARTESIAN AXES
 XX  3.553155E-02 YY -1.497964E-02 ZZ -2.055192E-02 XY -1.087719E-02 XZ -2.800938E-02 YZ  1.948229E-02

 TENSOR IN PRINCIPAL AXIS SYSTEM
 AA  5.186753E-02 BB -1.112333E-02 CC -4.074419E-02

 PRINCIPAL AXES
         X             Y             Z
 A  8.745154E-01 -2.613676E-01 -4.085460E-01
 B  4.288804E-01  8.100777E-01  3.997946E-01
 C  2.264606E-01 -5.248439E-01  8.205208E-01

 ANGLES BETWEEN PRINCIPAL AXES AND ORIGINAL AXES (DEGREES)
         X             Y             Z
 A     29.012325    105.151224    114.113528
 B     64.603471     35.896478     66.434659
 C     76.911217    121.657737     34.863035


 POINT   ATOM  MASS NO  NUCLEAR G FACTOR
    9    9 O      17      -0.7575220

 TENSOR IN ORIGINAL CARTESIAN AXES
 XX  2.161035E-02 YY -9.138078E-03 ZZ -1.247227E-02 XY  7.370950E-03 XZ  3.809967E-03 YZ -3.327603E-02

 TENSOR IN PRINCIPAL AXIS SYSTEM
 AA  1.982690E-02 BB  2.521982E-02 CC -4.504671E-02

 PRINCIPAL AXES
         X             Y             Z
 A  7.006515E-01 -4.540268E-01  5.504064E-01
 B  7.038441E-01  5.663176E-01 -4.288215E-01
 C -1.170084E-01  6.878547E-01  7.163553E-01

 ANGLES BETWEEN PRINCIPAL AXES AND ORIGINAL AXES (DEGREES)
         X             Y             Z
 A     45.520704    117.002332     56.605103
 B     45.263763     55.506165    115.392794
 C     96.719477     46.539469     44.245619


 POINT   ATOM  MASS NO  NUCLEAR G FACTOR
   10   10 O      17      -0.7575220

 TENSOR IN ORIGINAL CARTESIAN AXES
 XX -2.102370E-02 YY  3.370162E-02 ZZ -1.267791E-02 XY -4.719936E-02 XZ -2.544055E-02 YZ  1.832144E-02

 TENSOR IN PRINCIPAL AXIS SYSTEM
 AA -5.320294E-02 BB  7.083974E-02 CC -1.763679E-02

 PRINCIPAL AXES
         X             Y             Z
 A  8.498222E-01  3.858574E-01  3.590491E-01
 B -5.020275E-01  8.000617E-01  3.284353E-01
 C -1.605322E-01 -4.593641E-01  8.736212E-01

 ANGLES BETWEEN PRINCIPAL AXES AND ORIGINAL AXES (DEGREES)
         X             Y             Z
 A     31.807662     67.303020     68.958191
 B    120.134228     36.864008     70.826170
 C     99.237791    117.346082     29.117786


 POINT   ATOM  MASS NO  NUCLEAR G FACTOR
   11   11 O      17      -0.7575220

 TENSOR IN ORIGINAL CARTESIAN AXES
 XX -7.276929E-02 YY  1.141853E-01 ZZ -4.141598E-02 XY -5.799561E-02 XZ  5.114787E-02 YZ -1.122840E-01

 TENSOR IN PRINCIPAL AXIS SYSTEM
 AA -7.910400E-02 BB  1.942087E-01 CC -1.151047E-01

 PRINCIPAL AXES
         X             Y             Z
 A  7.355188E-01  4.915441E-01  4.662579E-01
 B -2.718527E-01  8.444913E-01 -4.614440E-01
 C -6.205708E-01  2.126473E-01  7.547668E-01

 ANGLES BETWEEN PRINCIPAL AXES AND ORIGINAL AXES (DEGREES)
         X             Y             Z
 A     42.648924     60.557881     62.208337
 B    105.774541     32.382527    117.480327
 C    128.357832     77.722463     40.995000


 POINT   ATOM  MASS NO  NUCLEAR G FACTOR
   12   12 O      17      -0.7575220

 TENSOR IN ORIGINAL CARTESIAN AXES
 XX -4.523172E-03 YY  1.311557E-02 ZZ -8.592400E-03 XY -3.680064E-03 XZ  5.333984E-03 YZ  8.238698E-03

 TENSOR IN PRINCIPAL AXIS SYSTEM
 AA -9.770725E-04 BB  1.605477E-02 CC -1.507770E-02

 PRINCIPAL AXES
         X             Y             Z
 A  8.541071E-01 -7.761323E-02  5.142736E-01
 B -9.280487E-02  9.501906E-01  2.975316E-01
 C -5.117503E-01 -3.018510E-01  8.043616E-01

 ANGLES BETWEEN PRINCIPAL AXES AND ORIGINAL AXES (DEGREES)
         X             Y             Z
 A     31.338774     94.451387     59.051087
 B     95.324990     18.159865     72.690592
 C    120.780488    107.568810     36.451352


 POINT   ATOM  MASS NO  NUCLEAR G FACTOR
   13   13 O      17      -0.7575220

 TENSOR IN ORIGINAL CARTESIAN AXES
 XX -8.581540E-03 YY  3.474316E-02 ZZ -2.616163E-02 XY -1.899577E-02 XZ -1.383133E-03 YZ  6.150817E-03

 TENSOR IN PRINCIPAL AXIS SYSTEM
 AA -1.566255E-02 BB  4.246044E-02 CC -2.679788E-02

 PRINCIPAL AXES
         X             Y             Z
 A  9.360166E-01  3.432533E-01  7.778253E-02
 B -3.495094E-01  9.325391E-01  9.063114E-02
 C -4.142581E-02 -1.120180E-01  9.928423E-01

 ANGLES BETWEEN PRINCIPAL AXES AND ORIGINAL AXES (DEGREES)
         X             Y             Z
 A     20.606993     69.924793     85.538883
 B    110.457313     21.165864     84.800083
 C     92.374204     96.431656      6.859352


 POINT   ATOM  MASS NO  NUCLEAR G FACTOR
   14   14 O      17      -0.7575220

 TENSOR IN ORIGINAL CARTESIAN AXES
 XX -8.460531E-03 YY  4.159395E-02 ZZ -3.313342E-02 XY  1.429978E-02 XZ -1.850284E-02 YZ -2.393522E-02

 TENSOR IN PRINCIPAL AXIS SYSTEM
 AA -8.705238E-03 BB  5.447874E-02 CC -4.577350E-02

 PRINCIPAL AXES
         X             Y             Z
 A  8.770535E-01 -3.856493E-01 -2.864469E-01
 B  2.962613E-01  9.035956E-01 -3.094255E-01
 C  3.781619E-01  1.865196E-01  9.067547E-01

 ANGLES BETWEEN PRINCIPAL AXES AND ORIGINAL AXES (DEGREES)
         X             Y             Z
 A     28.711054    112.684053    106.645355
 B     72.766814     25.365201    108.024613
 C     67.780129     79.250258     24.939345


 POINT   ATOM  MASS NO  NUCLEAR G FACTOR
   15   15 O      17      -0.7575220

 TENSOR IN ORIGINAL CARTESIAN AXES
 XX -1.259165E-03 YY  3.855351E-03 ZZ -2.596186E-03 XY -8.986781E-03 XZ -2.438878E-03 YZ  4.877569E-04

 TENSOR IN PRINCIPAL AXIS SYSTEM
 AA -8.520759E-03 BB  1.090045E-02 CC -2.379686E-03

 PRINCIPAL AXES
         X             Y             Z
 A  7.828070E-01  5.575360E-01  2.763455E-01
 B -6.064191E-01  7.830992E-01  1.378821E-01
 C -1.395317E-01 -2.755163E-01  9.511160E-01

 ANGLES BETWEEN PRINCIPAL AXES AND ORIGINAL AXES (DEGREES)
         X             Y             Z
 A     38.481694     56.114436     73.957787
 B    127.331026     38.454778     82.074687
 C     98.020749    105.992784     17.988964


 POINT   ATOM  MASS NO  NUCLEAR G FACTOR
   16   16 O      17      -0.7575220

 TENSOR IN ORIGINAL CARTESIAN AXES
 XX  7.920925E-05 YY  3.697294E-03 ZZ -3.776503E-03 XY  2.627110E-03 XZ -4.971260E-03 YZ  8.293214E-03

 TENSOR IN PRINCIPAL AXIS SYSTEM
 AA  2.693391E-03 BB  9.089822E-03 CC -1.178321E-02

 PRINCIPAL AXES
         X             Y             Z
 A  9.016046E-01  2.902310E-01 -3.207415E-01
 B -6.729403E-02  8.265773E-01  5.587857E-01
 C  4.272946E-01 -4.822198E-01  7.647767E-01

 ANGLES BETWEEN PRINCIPAL AXES AND ORIGINAL AXES (DEGREES)
         X             Y             Z
 A     25.630206     73.128214    108.707773
 B     93.858580     34.251266     56.028138
 C     64.704011    118.830479     40.112867


 POINT   ATOM  MASS NO  NUCLEAR G FACTOR
   17   17 O      17      -0.7575220

 TENSOR IN ORIGINAL CARTESIAN AXES
 XX  2.708918E-02 YY -1.716696E-02 ZZ -9.922220E-03 XY -4.213036E-04 XZ  2.511970E-03 YZ -4.158321E-02

 TENSOR IN PRINCIPAL AXIS SYSTEM
 AA  2.545059E-02 BB -5.530863E-02 CC  2.985804E-02

 PRINCIPAL AXES
         X             Y             Z
 A  7.891403E-01  4.249324E-01 -4.434975E-01
 B -1.683987E-02  7.367551E-01  6.759500E-01
 C  6.139821E-01 -5.259509E-01  5.885589E-01

 ANGLES BETWEEN PRINCIPAL AXES AND ORIGINAL AXES (DEGREES)
         X             Y             Z
 A     37.894757     64.853614    116.327249
 B     90.964899     42.544271     47.472037
 C     52.122005    121.732280     53.945187


 POINT   ATOM  MASS NO  NUCLEAR G FACTOR
   18   18 O      17      -0.7575220

 TENSOR IN ORIGINAL CARTESIAN AXES
 XX -6.926165E-03 YY  1.564284E-03 ZZ  5.361881E-03 XY -5.357791E-03 XZ -2.279516E-03 YZ -6.945071E-04

 TENSOR IN PRINCIPAL AXIS SYSTEM
 AA -9.880655E-03 BB  4.075341E-03 CC  5.805315E-03

 PRINCIPAL AXES
         X             Y             Z
 A  8.914521E-01  4.265905E-01  1.527534E-01
 B -3.921546E-01  8.952433E-01 -2.115517E-01
 C -2.269974E-01  1.286853E-01  9.653560E-01

 ANGLES BETWEEN PRINCIPAL AXES AND ORIGINAL AXES (DEGREES)
         X             Y             Z
 A     26.943706     64.748621     81.213475
 B    113.088632     26.460297    102.213302
 C    103.120362     82.606375     15.125624


 POINT   ATOM  MASS NO  NUCLEAR G FACTOR
   19   19 O      17      -0.7575220

 TENSOR IN ORIGINAL CARTESIAN AXES
 XX -1.270825E-02 YY  8.227235E-03 ZZ  4.481015E-03 XY -8.780287E-03 XZ -4.123200E-03 YZ  1.702526E-02

 TENSOR IN PRINCIPAL AXIS SYSTEM
 AA -1.628861E-02 BB  2.573969E-02 CC -9.451087E-03

 PRINCIPAL AXES
         X             Y             Z
 A  8.736234E-01  4.467777E-01 -1.927999E-01
 B -2.360824E-01  7.356226E-01  6.349208E-01
 C  4.254965E-01 -5.091650E-01  7.481335E-01

 ANGLES BETWEEN PRINCIPAL AXES AND ORIGINAL AXES (DEGREES)
         X             Y             Z
 A     29.117528     63.462866    101.116230
 B    103.655435     42.640147     50.585887
 C     64.817907    120.608228     41.571047


 POINT   ATOM  MASS NO  NUCLEAR G FACTOR
   20   20 O      17      -0.7575220

 TENSOR IN ORIGINAL CARTESIAN AXES
 XX  1.887464E-02 YY -5.640891E-02 ZZ  3.753427E-02 XY -1.024516E-02 XZ  1.603366E-03 YZ -2.649609E-02

 TENSOR IN PRINCIPAL AXIS SYSTEM
 AA  1.928291E-02 BB -6.445225E-02 CC  4.516934E-02

 PRINCIPAL AXES
         X             Y             Z
 A  9.804129E-01 -6.799762E-02 -1.848428E-01
 B  1.135099E-01  9.620470E-01  2.481552E-01
 C  1.609535E-01 -2.642761E-01  9.509217E-01

 ANGLES BETWEEN PRINCIPAL AXES AND ORIGINAL AXES (DEGREES)
         X             Y             Z
 A     11.358844     93.898985    100.651968
 B     83.482312     15.835937     75.631626
 C     80.737754    105.323941     18.024976


 POINT   ATOM  MASS NO  NUCLEAR G FACTOR
   21   21 O      17      -0.7575220

 TENSOR IN ORIGINAL CARTESIAN AXES
 XX -2.248222E-03 YY -6.088798E-02 ZZ  6.313620E-02 XY -5.761711E-03 XZ  9.091651E-03 YZ -2.988428E-02

 TENSOR IN PRINCIPAL AXIS SYSTEM
 AA -3.449699E-03 BB -6.791200E-02 CC  7.136170E-02

 PRINCIPAL AXES
         X             Y             Z
 A  9.890678E-01 -2.347089E-02 -1.455814E-01
 B  5.525922E-02  9.743053E-01  2.183472E-01
 C  1.367159E-01 -2.240049E-01  9.649511E-01

 ANGLES BETWEEN PRINCIPAL AXES AND ORIGINAL AXES (DEGREES)
         X             Y             Z
 A      8.479833     91.344907     98.370949
 B     86.832266     13.016474     77.388023
 C     82.142143    102.944372     15.214294


 POINT   ATOM  MASS NO  NUCLEAR G FACTOR
   22   22 O      17      -0.7575220

 TENSOR IN ORIGINAL CARTESIAN AXES
 XX -5.161077E-02 YY -5.679134E-02 ZZ  1.084021E-01 XY  1.602094E-01 XZ -4.075837E-02 YZ  1.918753E-02

 TENSOR IN PRINCIPAL AXIS SYSTEM
 AA  9.399095E-02 BB -2.198847E-01 CC  1.258938E-01

 PRINCIPAL AXES
         X             Y             Z
 A  5.037536E-01  6.127362E-01  6.089225E-01
 B -6.999528E-01  7.026307E-01 -1.279695E-01
 C -5.062591E-01 -3.617519E-01  7.828392E-01

 ANGLES BETWEEN PRINCIPAL AXES AND ORIGINAL AXES (DEGREES)
         X             Y             Z
 A     59.751349     52.212386     52.488368
 B    134.423220     45.361555     97.352270
 C    120.414972    111.207828     38.478729


 POINT   ATOM  MASS NO  NUCLEAR G FACTOR
   23   23 O      17      -0.7575220

 TENSOR IN ORIGINAL CARTESIAN AXES
 XX  2.257520E-02 YY  1.660677E-02 ZZ -3.918198E-02 XY  2.410725E-03 XZ  7.034616E-03 YZ  3.818290E-03

 TENSOR IN PRINCIPAL AXIS SYSTEM
 AA  2.441271E-02 BB  1.577968E-02 CC -4.019238E-02

 PRINCIPAL AXES
         X             Y             Z
 A  9.294688E-01  3.475494E-01  1.236817E-01
 B -3.524894E-01  9.356046E-01  1.988262E-02
 C -1.088070E-01 -6.207677E-02  9.921227E-01

 ANGLES BETWEEN PRINCIPAL AXES AND ORIGINAL AXES (DEGREES)
         X             Y             Z
 A     21.647837     69.662503     82.895366
 B    110.639653     20.673962     88.860735
 C     96.246549     93.559025      7.196329


 POINT   ATOM  MASS NO  NUCLEAR G FACTOR
   24   24 O      17      -0.7575220

 TENSOR IN ORIGINAL CARTESIAN AXES
 XX  3.574980E-03 YY -5.145780E-03 ZZ  1.570799E-03 XY  1.371510E-02 XZ  5.601384E-03 YZ  1.619104E-02

 TENSOR IN PRINCIPAL AXIS SYSTEM
 AA  2.368699E-02 BB -2.088161E-02 CC -2.805387E-03

 PRINCIPAL AXES
         X             Y             Z
 A  5.639524E-01  5.917302E-01  5.760322E-01
 B -3.363783E-01  8.016502E-01 -4.941726E-01
 C -7.541932E-01  8.492511E-02  6.511378E-01

 ANGLES BETWEEN PRINCIPAL AXES AND ORIGINAL AXES (DEGREES)
         X             Y             Z
 A     55.670425     53.720115     54.828052
 B    109.656372     36.712022    119.615205
 C    138.954921     85.128282     49.372561


 POINT   ATOM  MASS NO  NUCLEAR G FACTOR
   25   25 O      17      -0.7575220

 TENSOR IN ORIGINAL CARTESIAN AXES
 XX  3.237941E-03 YY -3.512589E-03 ZZ  2.746476E-04 XY -7.941918E-04 XZ -2.425881E-03 YZ -3.849687E-03

 TENSOR IN PRINCIPAL AXIS SYSTEM
 AA  4.836049E-03 BB -6.322405E-03 CC  1.486357E-03

 PRINCIPAL AXES
         X             Y             Z
 A  7.888844E-01  1.938605E-01 -5.831633E-01
 B  2.065233E-01  8.101189E-01  5.486852E-01
 C  5.788000E-01 -5.532861E-01  5.990535E-01

 ANGLES BETWEEN PRINCIPAL AXES AND ORIGINAL AXES (DEGREES)
         X             Y             Z
 A     37.918618     78.821836    125.673343
 B     78.081312     35.892449     56.723140
 C     54.633813    123.592744     53.197862


 POINT   ATOM  MASS NO  NUCLEAR G FACTOR
   26   26 O      17      -0.7575220

 TENSOR IN ORIGINAL CARTESIAN AXES
 XX -1.152491E-01 YY  9.311838E-03 ZZ  1.059372E-01 XY -1.250269E-01 XZ -6.065776E-02 YZ -3.422870E-02

 TENSOR IN PRINCIPAL AXIS SYSTEM
 AA -2.080732E-01 BB  8.649474E-02 CC  1.215785E-01

 PRINCIPAL AXES
         X             Y             Z
 A  8.312030E-01  5.121301E-01  2.163892E-01
 B -5.085005E-01  8.576530E-01 -7.654152E-02
 C -2.247860E-01 -4.641246E-02  9.733022E-01

 ANGLES BETWEEN PRINCIPAL AXES AND ORIGINAL AXES (DEGREES)
         X             Y             Z
 A     33.777482     59.194180     77.502961
 B    120.564001     30.945928     94.389799
 C    102.990296     92.660193     13.269255


 POINT   ATOM  MASS NO  NUCLEAR G FACTOR
   27   27 O      17      -0.7575220

 TENSOR IN ORIGINAL CARTESIAN AXES
 XX -4.608311E-03 YY -2.382647E-02 ZZ  2.843479E-02 XY  1.067342E-02 XZ -2.812947E-03 YZ  2.369580E-03

 TENSOR IN PRINCIPAL AXIS SYSTEM
 AA  5.458161E-05 BB -2.877072E-02 CC  2.871614E-02

 PRINCIPAL AXES
         X             Y             Z
 A  9.094720E-01  4.120114E-01  5.574318E-02
 B -4.090189E-01  9.106913E-01 -5.783543E-02
 C -7.459368E-02  2.979969E-02  9.967687E-01

 ANGLES BETWEEN PRINCIPAL AXES AND ORIGINAL AXES (DEGREES)
         X             Y             Z
 A     24.567515     65.668748     86.804495
 B    114.143221     24.398946     93.315576
 C     94.277877     88.292351      4.607295


 POINT   ATOM  MASS NO  NUCLEAR G FACTOR
   28   28 O      17      -0.7575220

 TENSOR IN ORIGINAL CARTESIAN AXES
 XX -3.888763E-02 YY  9.555669E-02 ZZ -5.666906E-02 XY  9.282104E-03 XZ -3.183797E-02 YZ  7.429724E-02

 TENSOR IN PRINCIPAL AXIS SYSTEM
 AA -2.216217E-02 BB  1.258804E-01 CC -1.037182E-01

 PRINCIPAL AXES
         X             Y             Z
 A  8.908633E-01  1.901416E-01 -4.125636E-01
 B -2.134921E-02  9.247081E-01  3.800777E-01
 C  4.537695E-01 -3.297894E-01  8.278479E-01

 ANGLES BETWEEN PRINCIPAL AXES AND ORIGINAL AXES (DEGREES)
         X             Y             Z
 A     27.018067     79.038954    114.365978
 B     91.223312     22.375614     67.661503
 C     63.014211    109.255993     34.121700


 POINT   ATOM  MASS NO  NUCLEAR G FACTOR
   29   29 O      17      -0.7575220

 TENSOR IN ORIGINAL CARTESIAN AXES
 XX  9.562050E-02 YY -1.583421E-01 ZZ  6.272159E-02 XY -7.302589E-03 XZ -3.136233E-02 YZ -8.486413E-02

 TENSOR IN PRINCIPAL AXIS SYSTEM
 AA  1.215125E-01 BB -1.881910E-01 CC  6.667852E-02

 PRINCIPAL AXES
         X             Y             Z
 A  7.380675E-01  1.780915E-01 -6.507994E-01
 B  6.035737E-02  9.432439E-01  3.265700E-01
 C  6.720219E-01 -2.803112E-01  6.854285E-01

 ANGLES BETWEEN PRINCIPAL AXES AND ORIGINAL AXES (DEGREES)
         X             Y             Z
 A     42.432946     79.741386    130.601897
 B     86.539674     19.396336     70.939283
 C     47.776695    106.278779     46.730683


 POINT   ATOM  MASS NO  NUCLEAR G FACTOR
   30   30 O      17      -0.7575220

 TENSOR IN ORIGINAL CARTESIAN AXES
 XX -1.293537E-02 YY -1.379123E-02 ZZ  2.672660E-02 XY -5.066807E-02 XZ  2.253351E-02 YZ  1.946511E-02

 TENSOR IN PRINCIPAL AXIS SYSTEM
 AA  3.880717E-02 BB -7.288557E-02 CC  3.407840E-02

 PRINCIPAL AXES
         X             Y             Z
 A  6.969162E-01 -4.713028E-01  5.405381E-01
 B  6.789706E-01  6.762768E-01 -2.857421E-01
 C -2.308824E-01  5.661478E-01  7.913090E-01

 ANGLES BETWEEN PRINCIPAL AXES AND ORIGINAL AXES (DEGREES)
         X             Y             Z
 A     45.819886    118.118896     57.279722
 B     47.236744     47.446618    106.603212
 C    103.349026     55.517966     37.691987


 POINT   ATOM  MASS NO  NUCLEAR G FACTOR
   31   31 O      17      -0.7575220

 TENSOR IN ORIGINAL CARTESIAN AXES
 XX  2.235068E-02 YY  2.464386E-02 ZZ -4.699454E-02 XY  2.359010E-02 XZ  2.033234E-02 YZ -7.006820E-02

 TENSOR IN PRINCIPAL AXIS SYSTEM
 AA  2.757481E-02 BB  6.968027E-02 CC -9.725508E-02

 PRINCIPAL AXES
         X             Y             Z
 A  9.447218E-01 -6.735462E-02  3.208802E-01
 B  2.215670E-01  8.525398E-01 -4.733751E-01
 C -2.416791E-01  5.183042E-01  8.203365E-01

 ANGLES BETWEEN PRINCIPAL AXES AND ORIGINAL AXES (DEGREES)
         X             Y             Z
 A     19.139728     93.862059     71.283838
 B     77.198913     31.511006    118.253606
 C    103.985664     58.781429     34.881510


 POINT   ATOM  MASS NO  NUCLEAR G FACTOR
   32   32 O      17      -0.7575220

 TENSOR IN ORIGINAL CARTESIAN AXES
 XX -1.967628E-02 YY  2.692988E-05 ZZ  1.964935E-02 XY -5.109497E-03 XZ -5.127975E-04 YZ  9.442939E-04

 TENSOR IN PRINCIPAL AXIS SYSTEM
 AA -2.092433E-02 BB  1.214583E-03 CC  1.970975E-02

 PRINCIPAL AXES
         X             Y             Z
 A  9.715743E-01  2.366379E-01  6.772006E-03
 B -2.358984E-01  9.701480E-01 -5.625636E-02
 C -1.988223E-02  5.305973E-02  9.983934E-01

 ANGLES BETWEEN PRINCIPAL AXES AND ORIGINAL AXES (DEGREES)
         X             Y             Z
 A     13.693902     76.311811     89.611990
 B    103.644584     14.034939     93.224954
 C     91.139243     86.958473      3.248261


 POINT   ATOM  MASS NO  NUCLEAR G FACTOR
   33   33 O      17      -0.7575220

 TENSOR IN ORIGINAL CARTESIAN AXES
 XX  8.817804E-03 YY -1.079606E-02 ZZ  1.978251E-03 XY  2.830437E-02 XZ  2.131293E-02 YZ  3.953692E-02

 TENSOR IN PRINCIPAL AXIS SYSTEM
 AA  5.950053E-02 BB -4.594972E-02 CC -1.355081E-02

 PRINCIPAL AXES
         X             Y             Z
 A  5.674499E-01  5.652371E-01  5.987550E-01
 B -1.887183E-01  7.970882E-01 -5.736164E-01
 C -8.014899E-01  2.125025E-01  5.589782E-01

 ANGLES BETWEEN PRINCIPAL AXES AND ORIGINAL AXES (DEGREES)
         X             Y             Z
 A     55.427410     55.581240     53.219214
 B    100.877997     37.147057    125.002792
 C    143.272611     77.730955     56.014834


 POINT   ATOM  MASS NO  NUCLEAR G FACTOR
   34   34 O      17      -0.7575220

 TENSOR IN ORIGINAL CARTESIAN AXES
 XX -3.382699E-03 YY  7.009967E-02 ZZ -6.671697E-02 XY  6.082172E-03 XZ -7.654890E-02 YZ  1.281513E-02

 TENSOR IN PRINCIPAL AXIS SYSTEM
 AA  4.761042E-02 BB  7.132193E-02 CC -1.189323E-01

 PRINCIPAL AXES
         X             Y             Z
 A  8.322718E-01  8.690533E-02 -5.475135E-01
 B -3.155214E-02  9.934608E-01  1.097271E-01
 C  5.534691E-01 -7.404756E-02  8.295715E-01

 ANGLES BETWEEN PRINCIPAL AXES AND ORIGINAL AXES (DEGREES)
         X             Y             Z
 A     33.667178     85.014403    123.196598
 B     91.808105      6.555953     83.700415
 C     56.394664     94.246499     33.945253


 POINT   ATOM  MASS NO  NUCLEAR G FACTOR
   35   35 O      17      -0.7575220

 TENSOR IN ORIGINAL CARTESIAN AXES
 XX  1.535922E-02 YY -7.463448E-03 ZZ -7.895774E-03 XY -1.145519E-02 XZ -2.039401E-04 YZ  3.770820E-03

 TENSOR IN PRINCIPAL AXIS SYSTEM
 AA  2.021328E-02 BB -1.410982E-02 CC -6.103466E-03

 PRINCIPAL AXES
         X             Y             Z
 A  9.195293E-01 -3.885977E-01 -5.880169E-02
 B  3.139264E-01  8.162256E-01 -4.850010E-01
 C  2.364657E-01  4.275132E-01  8.725345E-01

 ANGLES BETWEEN PRINCIPAL AXES AND ORIGINAL AXES (DEGREES)
         X             Y             Z
 A     23.142632    112.867274     93.371033
 B     71.703986     35.291271    119.012537
 C     76.321962     64.690154     29.245489


 POINT   ATOM  MASS NO  NUCLEAR G FACTOR
   36   36 O      17      -0.7575220

 TENSOR IN ORIGINAL CARTESIAN AXES
 XX -5.117078E-04 YY -1.986800E-02 ZZ  2.037971E-02 XY -4.829159E-02 XZ -3.041501E-02 YZ -3.447784E-02

 TENSOR IN PRINCIPAL AXIS SYSTEM
 AA  3.830164E-02 BB -8.039439E-02 CC  4.209275E-02

 PRINCIPAL AXES
         X             Y             Z
 A  5.700139E-01 -7.140921E-01  4.063946E-01
 B  5.811811E-01  7.000517E-01  4.149171E-01
 C -5.807862E-01 -3.196588E-04  8.140561E-01

 ANGLES BETWEEN PRINCIPAL AXES AND ORIGINAL AXES (DEGREES)
         X             Y             Z
 A     55.248803    135.568846     66.021453
 B     54.466340     45.568852     65.485906
 C    125.505859     90.018315     35.505865


 POINT   ATOM  MASS NO  NUCLEAR G FACTOR
   37   37 O      17      -0.7575220

 TENSOR IN ORIGINAL CARTESIAN AXES
 XX  1.670124E-03 YY -4.305530E-03 ZZ  2.635405E-03 XY -3.730040E-02 XZ -2.140738E-02 YZ -4.951667E-02

 TENSOR IN PRINCIPAL AXIS SYSTEM
 AA  5.171182E-02 BB -7.391887E-02 CC  2.220705E-02

 PRINCIPAL AXES
         X             Y             Z
 A  2.831733E-01 -7.341069E-01  6.171709E-01
 B  4.881174E-01  6.642471E-01  5.661424E-01
 C -8.255630E-01  1.409354E-01  5.464275E-01

 ANGLES BETWEEN PRINCIPAL AXES AND ORIGINAL AXES (DEGREES)
         X             Y             Z
 A     73.550309    137.231807     51.890172
 B     60.783079     48.375409     55.518344
 C    145.645610     81.898021     56.877734


 POINT   ATOM  MASS NO  NUCLEAR G FACTOR
   38   38 O      17      -0.7575220

 TENSOR IN ORIGINAL CARTESIAN AXES
 XX  2.617803E-02 YY -9.830723E-03 ZZ -1.634730E-02 XY  5.354422E-02 XZ -5.528851E-02 YZ -4.040910E-02

 TENSOR IN PRINCIPAL AXIS SYSTEM
 AA  1.037208E-01 BB -4.828567E-02 CC -5.543512E-02

 PRINCIPAL AXES
         X             Y             Z
 A  7.043145E-01  5.084197E-01 -4.954295E-01
 B -6.102433E-01  7.901874E-01 -5.663034E-02
 C  3.626902E-01  3.422181E-01  8.668002E-01

 ANGLES BETWEEN PRINCIPAL AXES AND ORIGINAL AXES (DEGREES)
         X             Y             Z
 A     45.225808     59.441374    119.698079
 B    127.607096     37.796971     93.246416
 C     68.734497     69.987928     29.911096


 POINT   ATOM  MASS NO  NUCLEAR G FACTOR
   39   39 O      17      -0.7575220

 TENSOR IN ORIGINAL CARTESIAN AXES
 XX -5.601704E-03 YY -7.616768E-03 ZZ  1.321847E-02 XY -1.069627E-02 XZ -3.613278E-03 YZ  1.422231E-02

 TENSOR IN PRINCIPAL AXIS SYSTEM
 AA -3.057860E-03 BB -1.979683E-02 CC  2.285469E-02

 PRINCIPAL AXES
         X             Y             Z
 A  7.983797E-01 -3.543400E-01  4.868603E-01
 B  5.290848E-01  7.988413E-01 -2.862199E-01
 C -2.875050E-01  4.861026E-01  8.252546E-01

 ANGLES BETWEEN PRINCIPAL AXES AND ORIGINAL AXES (DEGREES)
         X             Y             Z
 A     37.024347    110.753002     60.865572
 B     58.056361     36.980402    106.631781
 C    106.708642     60.915266     34.385686


 POINT   ATOM  MASS NO  NUCLEAR G FACTOR
   40   40 O      17      -0.7575220

 TENSOR IN ORIGINAL CARTESIAN AXES
 XX  1.153128E-03 YY -3.185210E-02 ZZ  3.069898E-02 XY  3.823065E-03 XZ -3.564237E-02 YZ  2.743837E-03

 TENSOR IN PRINCIPAL AXIS SYSTEM
 AA -2.067722E-02 BB -3.383173E-02 CC  5.450895E-02

 PRINCIPAL AXES
         X             Y             Z
 A  7.668760E-01  3.879018E-01  5.113056E-01
 B -3.216379E-01  9.216989E-01 -2.168414E-01
 C -5.553830E-01  1.835202E-03  8.315927E-01

 ANGLES BETWEEN PRINCIPAL AXES AND ORIGINAL AXES (DEGREES)
         X             Y             Z
 A     39.925822     67.175996     59.249164
 B    108.762008     22.824274    102.523582
 C    123.737099     89.894851     33.737308


 POINT   ATOM  MASS NO  NUCLEAR G FACTOR
   41   41 O      17      -0.7575220

 TENSOR IN ORIGINAL CARTESIAN AXES
 XX -2.072874E-01 YY  1.349520E-01 ZZ  7.233540E-02 XY  1.391532E-02 XZ -4.336506E-03 YZ  3.826036E-02

 TENSOR IN PRINCIPAL AXIS SYSTEM
 AA -2.079777E-01 BB  1.534005E-01 CC  5.457713E-02

 PRINCIPAL AXES
         X             Y             Z
 A  9.988517E-01 -4.290862E-02  2.130912E-02
 B  2.978381E-02  9.045494E-01  4.253274E-01
 C -3.752536E-02 -4.242043E-01  9.047887E-01

 ANGLES BETWEEN PRINCIPAL AXES AND ORIGINAL AXES (DEGREES)
         X             Y             Z
 A      2.746008     92.459238     88.778985
 B     88.293261     25.237344     64.828612
 C     92.150550    115.100311     25.205165


 POINT   ATOM  MASS NO  NUCLEAR G FACTOR
   42   42 O      17      -0.7575220

 TENSOR IN ORIGINAL CARTESIAN AXES
 XX -6.727147E-04 YY -5.223547E-03 ZZ  5.896262E-03 XY -8.982275E-03 XZ  1.135975E-03 YZ  5.296434E-03

 TENSOR IN PRINCIPAL AXIS SYSTEM
 AA  4.412560E-03 BB -1.346118E-02 CC  9.048624E-03

 PRINCIPAL AXES
         X             Y             Z
 A  7.148926E-01 -3.265370E-01  6.183059E-01
 B  5.715000E-01  7.823566E-01 -2.476003E-01
 C -4.028850E-01  5.303695E-01  7.459168E-01

 ANGLES BETWEEN PRINCIPAL AXES AND ORIGINAL AXES (DEGREES)
         X             Y             Z
 A     44.365603    109.058719     51.807472
 B     55.145109     38.523148    104.335557
 C    113.758660     57.969579     41.762093


 POINT   ATOM  MASS NO  NUCLEAR G FACTOR
   43   43 O      17      -0.7575220

 TENSOR IN ORIGINAL CARTESIAN AXES
 XX -4.350105E-02 YY -7.115311E-03 ZZ  5.061636E-02 XY -7.973131E-03 XZ  5.915064E-03 YZ -4.771815E-02

 TENSOR IN PRINCIPAL AXIS SYSTEM
 AA -4.558095E-02 BB -3.261581E-02 CC  7.819676E-02

 PRINCIPAL AXES
         X             Y             Z
 A  9.417458E-01  3.207405E-01  1.011947E-01
 B -3.279936E-01  8.092999E-01  4.872923E-01
 C  7.439753E-02 -4.920967E-01  8.673557E-01

 ANGLES BETWEEN PRINCIPAL AXES AND ORIGINAL AXES (DEGREES)
         X             Y             Z
 A     19.653158     71.292289     84.192031
 B    109.147041     35.972411     60.837231
 C     85.733394    119.478486     29.847212


 POINT   ATOM  MASS NO  NUCLEAR G FACTOR
   44   44 O      17      -0.7575220

 TENSOR IN ORIGINAL CARTESIAN AXES
 XX  4.124532E-02 YY -4.123938E-02 ZZ -5.942424E-06 XY  3.861014E-02 XZ -3.638069E-02 YZ  1.050157E-01

 TENSOR IN PRINCIPAL AXIS SYSTEM
 AA  5.607612E-02 BB -1.428646E-01 CC  8.678847E-02

 PRINCIPAL AXES
         X             Y             Z
 A  9.548486E-01  2.837144E-01 -8.814897E-02
 B -2.763748E-01  7.394045E-01 -6.139202E-01
 C -1.090003E-01  6.105630E-01  7.844309E-01

 ANGLES BETWEEN PRINCIPAL AXES AND ORIGINAL AXES (DEGREES)
         X             Y             Z
 A     17.283072     73.517981     95.057127
 B    106.043963     42.319289    127.873499
 C     96.257688     52.369780     38.331928


 POINT   ATOM  MASS NO  NUCLEAR G FACTOR
   45   45 O      17      -0.7575220

 TENSOR IN ORIGINAL CARTESIAN AXES
 XX  3.218680E-02 YY -6.941914E-02 ZZ  3.723234E-02 XY -1.409518E-02 XZ  2.397247E-02 YZ  1.247269E-02

 TENSOR IN PRINCIPAL AXIS SYSTEM
 AA  1.481007E-02 BB -7.362470E-02 CC  5.881463E-02

 PRINCIPAL AXES
         X             Y             Z
 A  7.247679E-01 -2.180663E-01 -6.535737E-01
 B  1.628601E-01  9.759331E-01 -1.450216E-01
 C  6.694685E-01 -1.334084E-03  7.428392E-01

 ANGLES BETWEEN PRINCIPAL AXES AND ORIGINAL AXES (DEGREES)
         X             Y             Z
 A     43.550457    102.595481    130.811589
 B     80.627054     12.595721     98.338530
 C     47.973943     90.076437     42.026159


 POINT   ATOM  MASS NO  NUCLEAR G FACTOR
   46   46 O      17      -0.7575220

 TENSOR IN ORIGINAL CARTESIAN AXES
 XX  3.589084E-02 YY -7.209638E-02 ZZ  3.620554E-02 XY  1.386272E-02 XZ  2.104551E-02 YZ -2.042475E-02

 TENSOR IN PRINCIPAL AXIS SYSTEM
 AA  5.728804E-02 BB -7.853651E-02 CC  2.124847E-02

 PRINCIPAL AXES
         X             Y             Z
 A  6.870387E-01 -4.091128E-02  7.254682E-01
 B -1.540848E-01  9.675042E-01  2.004830E-01
 C -7.100956E-01 -2.495232E-01  6.584090E-01

 ANGLES BETWEEN PRINCIPAL AXES AND ORIGINAL AXES (DEGREES)
         X             Y             Z
 A     46.603852     92.344698     43.492187
 B     98.863720     14.646508     78.434796
 C    135.242694    104.449298     48.821352


 POINT   ATOM  MASS NO  NUCLEAR G FACTOR
   47   47 O      17      -0.7575220

 TENSOR IN ORIGINAL CARTESIAN AXES
 XX  2.349762E-03 YY  3.021653E-02 ZZ -3.256629E-02 XY  1.184007E-02 XZ -3.652021E-02 YZ -4.260930E-03

 TENSOR IN PRINCIPAL AXIS SYSTEM
 AA  1.531004E-02 BB  4.036406E-02 CC -5.567410E-02

 PRINCIPAL AXES
         X             Y             Z
 A  6.414810E-01 -6.332817E-01 -4.329624E-01
 B  5.477472E-01  7.732502E-01 -3.194638E-01
 C  5.370988E-01 -3.222396E-02  8.429036E-01

 ANGLES BETWEEN PRINCIPAL AXES AND ORIGINAL AXES (DEGREES)
         X             Y             Z
 A     50.097657    129.292657    115.655707
 B     56.787403     39.353340    108.630501
 C     57.513639     91.846616     32.551986


 POINT   ATOM  MASS NO  NUCLEAR G FACTOR
   48   48 O      17      -0.7575220

 TENSOR IN ORIGINAL CARTESIAN AXES
 XX  2.182809E-02 YY -2.606619E-03 ZZ -1.922147E-02 XY -1.546888E-02 XZ -7.937893E-03 YZ -1.668842E-02

 TENSOR IN PRINCIPAL AXIS SYSTEM
 AA  2.932284E-02 BB  4.372499E-03 CC -3.369534E-02

 PRINCIPAL AXES
         X             Y             Z
 A  8.992601E-01 -4.374017E-01  3.322977E-03
 B  3.461997E-01  7.070724E-01 -6.165990E-01
 C  2.673519E-01  5.556333E-01  7.872703E-01

 ANGLES BETWEEN PRINCIPAL AXES AND ORIGINAL AXES (DEGREES)
         X             Y             Z
 A     25.939019    115.938215     89.809607
 B     69.744951     45.002785    128.068200
 C     74.493252     56.245653     38.068852


 POINT   ATOM  MASS NO  NUCLEAR G FACTOR
   49   49 O      17      -0.7575220

 TENSOR IN ORIGINAL CARTESIAN AXES
 XX  2.259911E-02 YY  3.574776E-02 ZZ -5.834687E-02 XY  1.912584E-02 XZ -5.385702E-02 YZ  2.086358E-02

 TENSOR IN PRINCIPAL AXIS SYSTEM
 AA  3.696469E-02 BB  5.413558E-02 CC -9.110028E-02

 PRINCIPAL AXES
         X             Y             Z
 A  3.810557E-01 -8.345050E-01 -3.979925E-01
 B  8.092119E-01  5.092429E-01 -2.929978E-01
 C  4.471830E-01 -2.104118E-01  8.693413E-01

 ANGLES BETWEEN PRINCIPAL AXES AND ORIGINAL AXES (DEGREES)
         X             Y             Z
 A     67.600910    146.564327    113.452740
 B     35.980994     59.386587    107.037516
 C     63.436910    102.146486     29.617818


 POINT   ATOM  MASS NO  NUCLEAR G FACTOR
   50   50 O      17      -0.7575220

 TENSOR IN ORIGINAL CARTESIAN AXES
 XX -3.022062E-02 YY  5.984419E-02 ZZ -2.962357E-02 XY -3.280444E-02 XZ  6.493641E-03 YZ -5.386406E-03

 TENSOR IN PRINCIPAL AXIS SYSTEM
 AA -4.253249E-02 BB  7.103206E-02 CC -2.849957E-02

 PRINCIPAL AXES
         X             Y             Z
 A  9.005956E-01  2.706837E-01 -3.400851E-01
 B -3.115466E-01  9.475890E-01 -7.080748E-02
 C  3.030945E-01  1.697213E-01  9.377251E-01

 ANGLES BETWEEN PRINCIPAL AXES AND ORIGINAL AXES (DEGREES)
         X             Y             Z
 A     25.763533     74.295043    109.882059
 B    108.152462     18.632192     94.060367
 C     72.356440     80.228387     20.327034


 POINT   ATOM  MASS NO  NUCLEAR G FACTOR
   51   51 O      17      -0.7575220

 TENSOR IN ORIGINAL CARTESIAN AXES
 XX -3.781510E-02 YY  2.570305E-02 ZZ  1.211205E-02 XY  4.693033E-02 XZ  3.402718E-02 YZ -4.548025E-02

 TENSOR IN PRINCIPAL AXIS SYSTEM
 AA -8.974632E-02 BB  6.738144E-02 CC  2.236487E-02

 PRINCIPAL AXES
         X             Y             Z
 A  7.417099E-01 -4.843035E-01 -4.640222E-01
 B  1.823059E-01  8.113492E-01 -5.554071E-01
 C  6.454696E-01  3.273569E-01  6.900771E-01

 ANGLES BETWEEN PRINCIPAL AXES AND ORIGINAL AXES (DEGREES)
         X             Y             Z
 A     42.122726    118.966851    117.646956
 B     79.495900     35.772038    123.738759
 C     49.799105     70.891569     46.363788


 POINT   ATOM  MASS NO  NUCLEAR G FACTOR
   52   52 O      17      -0.7575220

 TENSOR IN ORIGINAL CARTESIAN AXES
 XX -1.639730E-02 YY -2.968861E-02 ZZ  4.608591E-02 XY -4.772063E-03 XZ  2.984059E-02 YZ -1.389180E-02

 TENSOR IN PRINCIPAL AXIS SYSTEM
 AA -2.822079E-02 BB -3.221458E-02 CC  6.043537E-02

 PRINCIPAL AXES
         X             Y             Z
 A  9.236191E-01  1.832959E-01 -3.366457E-01
 B -1.139277E-01  9.698388E-01  2.154836E-01
 C  3.659893E-01 -1.606715E-01  9.166441E-01

 ANGLES BETWEEN PRINCIPAL AXES AND ORIGINAL AXES (DEGREES)
         X             Y             Z
 A     22.538956     79.438207    109.672644
 B     96.541780     14.107811     77.556098
 C     68.531520     99.245876     23.559694


 POINT   ATOM  MASS NO  NUCLEAR G FACTOR
   53   53 O      17      -0.7575220

 TENSOR IN ORIGINAL CARTESIAN AXES
 XX -6.130519E-02 YY -9.061006E-03 ZZ  7.036620E-02 XY -5.755608E-02 XZ -2.353018E-02 YZ  2.096156E-02

 TENSOR IN PRINCIPAL AXIS SYSTEM
 AA -9.882815E-02 BB  1.231393E-02 CC  8.651422E-02

 PRINCIPAL AXES
         X             Y             Z
 A  8.461558E-01  5.303960E-01  5.196552E-02
 B -4.513827E-01  7.650957E-01 -4.592191E-01
 C -2.833266E-01  3.651146E-01  8.868018E-01

 ANGLES BETWEEN PRINCIPAL AXES AND ORIGINAL AXES (DEGREES)
         X             Y             Z
 A     32.204014     57.967787     87.021253
 B    116.832432     40.084493    117.336730
 C    106.458846     68.585365     27.525930


 POINT   ATOM  MASS NO  NUCLEAR G FACTOR
   54   54 O      17      -0.7575220

 TENSOR IN ORIGINAL CARTESIAN AXES
 XX -1.732402E-01 YY  1.060814E-01 ZZ  6.715873E-02 XY -6.642637E-02 XZ -3.586384E-02 YZ  5.272916E-03

 TENSOR IN PRINCIPAL AXIS SYSTEM
 AA -1.926450E-01 BB  1.242557E-01 CC  6.838939E-02

 PRINCIPAL AXES
         X             Y             Z
 A  9.684368E-01  2.130632E-01  1.293607E-01
 B -2.388362E-01  9.416983E-01  2.369844E-01
 C -7.132610E-02 -2.604004E-01  9.628625E-01

 ANGLES BETWEEN PRINCIPAL AXES AND ORIGINAL AXES (DEGREES)
         X             Y             Z
 A     14.433678     77.698074     82.567348
 B    103.817861     19.661253     76.291376
 C     94.090157    105.093823     15.663803


 POINT   ATOM  MASS NO  NUCLEAR G FACTOR
   55   55 O      17      -0.7575220

 TENSOR IN ORIGINAL CARTESIAN AXES
 XX  8.204834E-02 YY -1.385474E-01 ZZ  5.649909E-02 XY  3.609916E-02 XZ -2.321671E-02 YZ -3.760371E-02

 TENSOR IN PRINCIPAL AXIS SYSTEM
 AA  1.062055E-01 BB -1.498304E-01 CC  4.362483E-02

 PRINCIPAL AXES
         X             Y             Z
 A  8.191608E-01  2.032249E-01 -5.363536E-01
 B -1.358386E-01  9.772600E-01  1.628215E-01
 C  5.572463E-01 -6.051948E-02  8.281389E-01

 ANGLES BETWEEN PRINCIPAL AXES AND ORIGINAL AXES (DEGREES)
         X             Y             Z
 A     34.999123     78.274393    122.435755
 B     97.807115     12.242206     80.629295
 C     56.134428     93.469631     34.091973


 POINT   ATOM  MASS NO  NUCLEAR G FACTOR
   56   56 O      17      -0.7575220

 TENSOR IN ORIGINAL CARTESIAN AXES
 XX  1.637241E-02 YY -3.124109E-03 ZZ -1.324830E-02 XY  7.350291E-03 XZ -1.739574E-02 YZ  2.038919E-02

 TENSOR IN PRINCIPAL AXIS SYSTEM
 AA  2.460913E-02 BB  1.103677E-02 CC -3.564589E-02

 PRINCIPAL AXES
         X             Y             Z
 A  8.806134E-01 -1.061169E-01 -4.618000E-01
 B  3.366833E-01  8.259067E-01  4.522416E-01
 C  3.334132E-01 -5.537303E-01  7.630323E-01

 ANGLES BETWEEN PRINCIPAL AXES AND ORIGINAL AXES (DEGREES)
         X             Y             Z
 A     28.283553     96.091520    117.503318
 B     70.325070     34.319472     63.112408
 C     70.523923    123.623307     40.267745


 POINT   ATOM  MASS NO  NUCLEAR G FACTOR
   57   57 O      17      -0.7575220

 TENSOR IN ORIGINAL CARTESIAN AXES
 XX -8.793545E-03 YY -1.437016E-02 ZZ  2.316371E-02 XY -2.002211E-02 XZ  3.677902E-02 YZ -4.237068E-02

 TENSOR IN PRINCIPAL AXIS SYSTEM
 AA -4.265182E-02 BB -2.961194E-02 CC  7.226376E-02

 PRINCIPAL AXES
         X             Y             Z
 A  2.100229E-01 -7.644559E-01 -6.095059E-01
 B  8.636512E-01  4.372580E-01 -2.508227E-01
 C  4.582542E-01 -4.737221E-01  7.520575E-01

 ANGLES BETWEEN PRINCIPAL AXES AND ORIGINAL AXES (DEGREES)
         X             Y             Z
 A     77.876305    139.858615    127.553787
 B     30.270950     64.070941    104.526198
 C     62.725489    118.276176     41.231078


 POINT   ATOM  MASS NO  NUCLEAR G FACTOR
   58   58 O      17      -0.7575220

 TENSOR IN ORIGINAL CARTESIAN AXES
 XX  7.259549E-03 YY  9.536105E-03 ZZ -1.679565E-02 XY -1.480024E-02 XZ  1.397380E-02 YZ -5.874885E-03

 TENSOR IN PRINCIPAL AXIS SYSTEM
 AA -4.412309E-03 BB  2.764418E-02 CC -2.323187E-02

 PRINCIPAL AXES
         X             Y             Z
 A  5.861064E-01  7.505011E-01  3.053316E-01
 B -6.872087E-01  6.600925E-01 -3.033514E-01
 C -4.292127E-01 -3.203036E-02  9.026353E-01

 ANGLES BETWEEN PRINCIPAL AXES AND ORIGINAL AXES (DEGREES)
         X             Y             Z
 A     54.118812     41.366194     72.221885
 B    133.409559     48.693072    107.659007
 C    115.417604     91.835518     25.493338


 POINT   ATOM  MASS NO  NUCLEAR G FACTOR
   59   59 O      17      -0.7575220

 TENSOR IN ORIGINAL CARTESIAN AXES
 XX -6.517455E-02 YY  6.154028E-02 ZZ  3.634274E-03 XY -7.303286E-02 XZ -1.868403E-02 YZ  5.813587E-02

 TENSOR IN PRINCIPAL AXIS SYSTEM
 AA -9.911000E-02 BB  1.251833E-01 CC -2.607333E-02

 PRINCIPAL AXES
         X             Y             Z
 A  8.951369E-01  4.376417E-01 -8.485062E-02
 B -3.583250E-01  8.195862E-01  4.470813E-01
 C  2.652038E-01 -3.697949E-01  8.904598E-01

 ANGLES BETWEEN PRINCIPAL AXES AND ORIGINAL AXES (DEGREES)
         X             Y             Z
 A     26.473979     64.046489     94.867435
 B    110.997367     34.956612     63.443423
 C     74.620935    111.702968     27.068916


 POINT   ATOM  MASS NO  NUCLEAR G FACTOR
   60   60 O      17      -0.7575220

 TENSOR IN ORIGINAL CARTESIAN AXES
 XX -1.014549E-02 YY  4.609393E-02 ZZ -3.594844E-02 XY  6.488551E-02 XZ  1.560437E-02 YZ  3.240287E-02

 TENSOR IN PRINCIPAL AXIS SYSTEM
 AA -5.495290E-02 BB  9.817753E-02 CC -4.322463E-02

 PRINCIPAL AXES
         X             Y             Z
 A  6.961618E-01 -5.818617E-01  4.204709E-01
 B  5.235781E-01  8.122467E-01  2.571406E-01
 C -4.911464E-01  4.113788E-02  8.701051E-01

 ANGLES BETWEEN PRINCIPAL AXES AND ORIGINAL AXES (DEGREES)
         X             Y             Z
 A     45.880131    125.581588     65.135679
 B     58.427430     35.683976     75.099536
 C    119.415956     87.642308     29.529142


 POINT   ATOM  MASS NO  NUCLEAR G FACTOR
   61   61 O      17      -0.7575220

 TENSOR IN ORIGINAL CARTESIAN AXES
 XX  2.128143E-02 YY -3.315140E-02 ZZ  1.186997E-02 XY -1.713233E-03 XZ  6.369286E-04 YZ  2.438932E-03

 TENSOR IN PRINCIPAL AXIS SYSTEM
 AA  2.136870E-02 BB -3.333890E-02 CC  1.197020E-02

 PRINCIPAL AXES
         X             Y             Z
 A  9.978135E-01 -2.869165E-02  5.954057E-02
 B  3.193702E-02  9.980143E-01 -5.429090E-02
 C -5.786465E-02  5.607374E-02  9.967484E-01

 ANGLES BETWEEN PRINCIPAL AXES AND ORIGINAL AXES (DEGREES)
         X             Y             Z
 A      3.789615     91.644136     86.586558
 B     88.169832      3.611331     93.112170
 C     93.317253     86.785525      4.621707


 POINT   ATOM  MASS NO  NUCLEAR G FACTOR
   62   62 O      17      -0.7575220

 TENSOR IN ORIGINAL CARTESIAN AXES
 XX -1.403270E-03 YY -1.288301E-02 ZZ  1.428628E-02 XY  2.047702E-02 XZ  2.381613E-03 YZ  3.051163E-03

 TENSOR IN PRINCIPAL AXIS SYSTEM
 AA  1.047493E-02 BB -2.843265E-02 CC  1.795771E-02

 PRINCIPAL AXES
         X             Y             Z
 A  5.811728E-01  4.183100E-01 -6.980365E-01
 B -6.023854E-01  7.978622E-01 -2.340320E-02
 C  5.471471E-01  4.340883E-01  7.156796E-01

 ANGLES BETWEEN PRINCIPAL AXES AND ORIGINAL AXES (DEGREES)
         X             Y             Z
 A     54.466928     65.272065    134.269684
 B    127.040932     37.073560     91.341027
 C     56.828485     64.272704     44.301075


 POINT   ATOM  MASS NO  NUCLEAR G FACTOR
   63   63 O      17      -0.7575220

 TENSOR IN ORIGINAL CARTESIAN AXES
 XX  5.707508E-03 YY -1.281503E-03 ZZ -4.426005E-03 XY  7.774827E-03 XZ  6.825191E-03 YZ -4.765410E-04

 TENSOR IN PRINCIPAL AXIS SYSTEM
 AA  1.259358E-02 BB -1.019721E-02 CC -2.396375E-03

 PRINCIPAL AXES
         X             Y             Z
 A  8.310047E-01  4.546412E-01  3.205192E-01
 B -5.367849E-01  5.042528E-01  6.764547E-01
 C  1.459214E-01 -7.341870E-01  6.630810E-01

 ANGLES BETWEEN PRINCIPAL AXES AND ORIGINAL AXES (DEGREES)
         X             Y             Z
 A     33.797914     62.958152     71.305672
 B    122.465043     59.718234     47.432779
 C     81.609358    137.238561     48.464727


 POINT   ATOM  MASS NO  NUCLEAR G FACTOR
   64   64 O      17      -0.7575220

 TENSOR IN ORIGINAL CARTESIAN AXES
 XX  2.053511E-02 YY -1.634955E-02 ZZ -4.185564E-03 XY -5.471100E-02 XZ  4.701818E-02 YZ  4.656951E-02

 TENSOR IN PRINCIPAL AXIS SYSTEM
 AA  6.361453E-02 BB -1.002972E-01 CC  3.668269E-02

 PRINCIPAL AXES
         X             Y             Z
 A  8.584088E-01 -4.010656E-01  3.198135E-01
 B  5.126004E-01  6.471314E-01 -5.643241E-01
 C  1.936964E-02  6.483573E-01  7.610897E-01

 ANGLES BETWEEN PRINCIPAL AXES AND ORIGINAL AXES (DEGREES)
         X             Y             Z
 A     30.861610    113.644814     71.348352
 B     59.162804     49.674327    124.355372
 C     88.890132     49.582133     40.439640


 POINT   ATOM  MASS NO  NUCLEAR G FACTOR
   65   65 SI     29      -1.1106000

 TENSOR IN ORIGINAL CARTESIAN AXES
 XX  9.112751E-03 YY -1.250195E-02 ZZ  3.389202E-03 XY  3.879564E-03 XZ -1.574555E-03 YZ  4.447065E-03

 TENSOR IN PRINCIPAL AXIS SYSTEM
 AA  9.899605E-03 BB -1.439538E-02 CC  4.495772E-03

 PRINCIPAL AXES
         X             Y             Z
 A  9.799211E-01  1.418996E-01 -1.400686E-01
 B -1.740118E-01  9.515943E-01 -2.533539E-01
 C  9.733767E-02  2.726405E-01  9.571795E-01

 ANGLES BETWEEN PRINCIPAL AXES AND ORIGINAL AXES (DEGREES)
         X             Y             Z
 A     11.501048     81.842216     98.051817
 B    100.021155     17.900022    104.676071
 C     84.414118     74.178550     16.827734


 POINT   ATOM  MASS NO  NUCLEAR G FACTOR
   66   66 SI     29      -1.1106000

 TENSOR IN ORIGINAL CARTESIAN AXES
 XX  1.684395E-02 YY -8.689526E-04 ZZ -1.597500E-02 XY -4.587312E-03 XZ -9.106898E-03 YZ -3.292684E-02

 TENSOR IN PRINCIPAL AXIS SYSTEM
 AA  1.791643E-02 BB  2.593082E-02 CC -4.384724E-02

 PRINCIPAL AXES
         X             Y             Z
 A  9.508267E-01 -3.067854E-01  4.255926E-02
 B  2.637060E-01  7.298089E-01 -6.307441E-01
 C  1.624430E-01  6.109515E-01  7.748229E-01

 ANGLES BETWEEN PRINCIPAL AXES AND ORIGINAL AXES (DEGREES)
         X             Y             Z
 A     18.042563    107.865612     87.560797
 B     74.709920     43.129625    129.105042
 C     80.651276     52.341669     39.211017


 POINT   ATOM  MASS NO  NUCLEAR G FACTOR
   67   67 SI     29      -1.1106000

 TENSOR IN ORIGINAL CARTESIAN AXES
 XX -2.036742E-03 YY -2.891393E-03 ZZ  4.928135E-03 XY  5.486753E-03 XZ  7.866656E-04 YZ  9.494590E-05

 TENSOR IN PRINCIPAL AXIS SYSTEM
 AA  2.843505E-03 BB -7.984197E-03 CC  5.140692E-03

 PRINCIPAL AXES
         X             Y             Z
 A  6.935453E-01  6.587063E-01 -2.917206E-01
 B -6.801976E-01  7.321415E-01  3.605655E-02
 C  2.373315E-01  1.734208E-01  9.558237E-01

 ANGLES BETWEEN PRINCIPAL AXES AND ORIGINAL AXES (DEGREES)
         X             Y             Z
 A     46.088592     48.798716    106.960996
 B    132.859083     42.933773     87.933664
 C     76.270905     80.013228     17.094015


 POINT   ATOM  MASS NO  NUCLEAR G FACTOR
   68   68 SI     29      -1.1106000

 TENSOR IN ORIGINAL CARTESIAN AXES
 XX  3.362612E-03 YY -1.025627E-02 ZZ  6.893662E-03 XY  1.957521E-02 XZ -8.183507E-03 YZ -5.043246E-04

 TENSOR IN PRINCIPAL AXIS SYSTEM
 AA  2.085690E-02 BB -2.478693E-02 CC  3.930025E-03

 PRINCIPAL AXES
         X             Y             Z
 A  7.496502E-01  4.790532E-01 -4.566538E-01
 B -5.924599E-01  7.932690E-01 -1.404120E-01
 C  2.949845E-01  3.758089E-01  8.784941E-01

 ANGLES BETWEEN PRINCIPAL AXES AND ORIGINAL AXES (DEGREES)
         X             Y             Z
 A     41.439915     61.376419    117.171391
 B    126.331767     37.507937     98.071688
 C     72.843394     67.925681     28.538768


 POINT   ATOM  MASS NO  NUCLEAR G FACTOR
   69   69 SI     29      -1.1106000

 TENSOR IN ORIGINAL CARTESIAN AXES
 XX -2.864530E-03 YY  3.752550E-04 ZZ  2.489275E-03 XY -5.833634E-03 XZ -2.388366E-03 YZ -2.450206E-03

 TENSOR IN PRINCIPAL AXIS SYSTEM
 AA -8.356806E-03 BB  4.974239E-03 CC  3.382567E-03

 PRINCIPAL AXES
         X             Y             Z
 A  7.528697E-01  5.866787E-01  2.983208E-01
 B -5.056304E-01  8.057184E-01 -3.084733E-01
 C -4.213373E-01  8.140011E-02  9.032436E-01

 ANGLES BETWEEN PRINCIPAL AXES AND ORIGINAL AXES (DEGREES)
         X             Y             Z
 A     41.160423     54.078330     72.643224
 B    120.373208     36.320307    107.967247
 C    114.919044     85.330951     25.412251


 POINT   ATOM  MASS NO  NUCLEAR G FACTOR
   70   70 SI     29      -1.1106000

 TENSOR IN ORIGINAL CARTESIAN AXES
 XX  4.856375E-03 YY  1.534885E-03 ZZ -6.391259E-03 XY -6.990356E-03 XZ  9.936780E-03 YZ  9.621207E-03

 TENSOR IN PRINCIPAL AXIS SYSTEM
 AA  1.105689E-02 BB  7.957680E-03 CC -1.901456E-02

 PRINCIPAL AXES
         X             Y             Z
 A  8.885025E-01 -3.183926E-01  3.304382E-01
 B  6.980569E-02  8.055133E-01  5.884517E-01
 C -4.535310E-01 -4.997744E-01  7.379263E-01

 ANGLES BETWEEN PRINCIPAL AXES AND ORIGINAL AXES (DEGREES)
         X             Y             Z
 A     27.314325    108.565742     70.704625
 B     85.997173     36.340140     53.952786
 C    116.970459    119.985074     42.444937


 POINT   ATOM  MASS NO  NUCLEAR G FACTOR
   71   71 SI     29      -1.1106000

 TENSOR IN ORIGINAL CARTESIAN AXES
 XX  9.135705E-04 YY  1.278468E-03 ZZ -2.192038E-03 XY  4.529873E-03 XZ  3.095841E-03 YZ  1.545608E-03

 TENSOR IN PRINCIPAL AXIS SYSTEM
 AA -4.505062E-03 BB  6.825086E-03 CC -2.320024E-03

 PRINCIPAL AXES
         X             Y             Z
 A  6.662276E-01 -3.451475E-01 -6.610703E-01
 B  6.779664E-01  6.495775E-01  3.441084E-01
 C  3.106483E-01 -6.774380E-01  6.667649E-01

 ANGLES BETWEEN PRINCIPAL AXES AND ORIGINAL AXES (DEGREES)
         X             Y             Z
 A     48.223427    110.190798    131.381554
 B     47.315068     49.490242     69.872620
 C     71.901696    132.643762     48.182135


 POINT   ATOM  MASS NO  NUCLEAR G FACTOR
   72   72 SI     29      -1.1106000

 TENSOR IN ORIGINAL CARTESIAN AXES
 XX  5.754837E-04 YY  1.331993E-03 ZZ -1.907476E-03 XY  8.197769E-04 XZ -2.469596E-03 YZ  8.818709E-05

 TENSOR IN PRINCIPAL AXIS SYSTEM
 AA  1.002238E-03 BB  2.481712E-03 CC -3.483950E-03

 PRINCIPAL AXES
         X             Y             Z
 A  3.817519E-01 -8.554592E-01 -3.499358E-01
 B  7.555621E-01  5.069067E-01 -4.149356E-01
 C  5.323453E-01 -1.059958E-01  8.398651E-01

 ANGLES BETWEEN PRINCIPAL AXES AND ORIGINAL AXES (DEGREES)
         X             Y             Z
 A     67.557761    148.810503    110.483388
 B     40.925494     59.541992    114.515259
 C     57.835947     96.084541     32.874121


 POINT   ATOM  MASS NO  NUCLEAR G FACTOR
   73   73 SI     29      -1.1106000

 TENSOR IN ORIGINAL CARTESIAN AXES
 XX  3.099354E-03 YY -1.880725E-02 ZZ  1.570789E-02 XY -9.940251E-03 XZ  2.993021E-03 YZ  3.856868E-03

 TENSOR IN PRINCIPAL AXIS SYSTEM
 AA  6.734841E-03 BB -2.320808E-02 CC  1.647324E-02

 PRINCIPAL AXES
         X             Y             Z
 A  9.148769E-01 -3.776149E-01 -1.428538E-01
 B  3.627945E-01  9.241759E-01 -1.194953E-01
 C  1.771452E-01  5.749693E-02  9.825038E-01

 ANGLES BETWEEN PRINCIPAL AXES AND ORIGINAL AXES (DEGREES)
         X             Y             Z
 A     23.811748    112.186025     98.213017
 B     68.728088     22.455589     96.862976
 C     79.796478     86.703851     10.733592


 POINT   ATOM  MASS NO  NUCLEAR G FACTOR
   74   74 SI     29      -1.1106000

 TENSOR IN ORIGINAL CARTESIAN AXES
 XX  5.867034E-03 YY  3.034395E-02 ZZ -3.621099E-02 XY  2.379837E-02 XZ  2.089672E-02 YZ  5.569072E-03

 TENSOR IN PRINCIPAL AXIS SYSTEM
 AA -2.857069E-03 BB  4.791654E-02 CC -4.505947E-02

 PRINCIPAL AXES
         X             Y             Z
 A  7.288860E-01 -5.827409E-01  3.593581E-01
 B  5.537049E-01  8.104678E-01  1.911880E-01
 C -4.026612E-01  5.962411E-02  9.134051E-01

 ANGLES BETWEEN PRINCIPAL AXES AND ORIGINAL AXES (DEGREES)
         X             Y             Z
 A     43.206916    125.643555     68.939219
 B     56.378441     35.858341     78.977878
 C    113.744651     86.581763     24.019762


 POINT   ATOM  MASS NO  NUCLEAR G FACTOR
   75   75 SI     29      -1.1106000

 TENSOR IN ORIGINAL CARTESIAN AXES
 XX  1.627963E-03 YY  6.564790E-04 ZZ -2.284442E-03 XY  6.959042E-03 XZ  1.344746E-02 YZ -1.205154E-02

 TENSOR IN PRINCIPAL AXIS SYSTEM
 AA  7.922301E-03 BB -2.217049E-02 CC  1.424819E-02

 PRINCIPAL AXES
         X             Y             Z
 A  6.110528E-01  7.825973E-01 -1.189786E-01
 B -5.307305E-01  5.165499E-01  6.719385E-01
 C  5.873157E-01 -3.474443E-01  7.309875E-01

 ANGLES BETWEEN PRINCIPAL AXES AND ORIGINAL AXES (DEGREES)
         X             Y             Z
 A     52.334335     38.500996     96.833156
 B    122.054822     58.898889     47.783143
 C     54.033250    110.331080     43.030756


 POINT   ATOM  MASS NO  NUCLEAR G FACTOR
   76   76 SI     29      -1.1106000

 TENSOR IN ORIGINAL CARTESIAN AXES
 XX -3.964348E-03 YY -9.968989E-03 ZZ  1.393334E-02 XY  2.551200E-02 XZ -5.888077E-03 YZ  7.436117E-03

 TENSOR IN PRINCIPAL AXIS SYSTEM
 AA  1.881470E-02 BB -3.450615E-02 CC  1.569146E-02

 PRINCIPAL AXES
         X             Y             Z
 A  7.153000E-01  6.778687E-01  1.698235E-01
 B -6.506943E-01  7.346962E-01 -1.918812E-01
 C -2.548389E-01  2.674937E-02  9.666135E-01

 ANGLES BETWEEN PRINCIPAL AXES AND ORIGINAL AXES (DEGREES)
         X             Y             Z
 A     44.332212     47.322683     80.222441
 B    130.593970     42.718446    101.062587
 C    104.764041     88.467191     14.847013


 POINT   ATOM  MASS NO  NUCLEAR G FACTOR
   77   77 SI     29      -1.1106000

 TENSOR IN ORIGINAL CARTESIAN AXES
 XX -2.699367E-04 YY -1.311007E-03 ZZ  1.580944E-03 XY -3.280253E-03 XZ -1.919502E-03 YZ -3.352302E-03

 TENSOR IN PRINCIPAL AXIS SYSTEM
 AA  2.217383E-03 BB -6.021977E-03 CC  3.804594E-03

 PRINCIPAL AXES
         X             Y             Z
 A  8.292239E-01 -4.008633E-01 -3.894822E-01
 B  5.509804E-01  7.033018E-01  4.492073E-01
 C  9.385276E-02 -5.870905E-01  8.040625E-01

 ANGLES BETWEEN PRINCIPAL AXES AND ORIGINAL AXES (DEGREES)
         X             Y             Z
 A     33.980907    113.632160    112.922283
 B     56.565700     45.307492     63.307163
 C     84.614707    125.950811     36.480192


 POINT   ATOM  MASS NO  NUCLEAR G FACTOR
   78   78 SI     29      -1.1106000

 TENSOR IN ORIGINAL CARTESIAN AXES
 XX  2.655935E-03 YY -4.194381E-03 ZZ  1.538446E-03 XY -6.217003E-03 XZ  1.991245E-03 YZ  3.789782E-03

 TENSOR IN PRINCIPAL AXIS SYSTEM
 AA  6.341798E-03 BB -9.520832E-03 CC  3.179034E-03

 PRINCIPAL AXES
         X             Y             Z
 A  8.499869E-01 -5.233155E-01 -6.052425E-02
 B  4.702282E-01  8.054760E-01 -3.606852E-01
 C  2.375030E-01  2.781175E-01  9.307218E-01

 ANGLES BETWEEN PRINCIPAL AXES AND ORIGINAL AXES (DEGREES)
         X             Y             Z
 A     31.789755    121.554910     93.469905
 B     61.950887     36.343749    111.142282
 C     76.260790     73.852118     21.452394


 POINT   ATOM  MASS NO  NUCLEAR G FACTOR
   79   79 SI     29      -1.1106000

 TENSOR IN ORIGINAL CARTESIAN AXES
 XX  1.457537E-03 YY  3.097892E-04 ZZ -1.767326E-03 XY  3.066572E-03 XZ -3.544025E-04 YZ  2.862344E-03

 TENSOR IN PRINCIPAL AXIS SYSTEM
 AA  4.456483E-03 BB -4.573281E-03 CC  1.167980E-04

 PRINCIPAL AXES
         X             Y             Z
 A  6.704671E-01  6.878259E-01  2.781534E-01
 B -3.606573E-01  6.297706E-01 -6.879791E-01
 C -6.483827E-01  3.609493E-01  6.703099E-01

 ANGLES BETWEEN PRINCIPAL AXES AND ORIGINAL AXES (DEGREES)
         X             Y             Z
 A     47.896872     46.541742     73.849974
 B    111.140567     50.966797    133.470350
 C    130.419778     68.841492     47.909009


 POINT   ATOM  MASS NO  NUCLEAR G FACTOR
   80   80 SI     29      -1.1106000

 TENSOR IN ORIGINAL CARTESIAN AXES
 XX  7.586307E-04 YY  1.454289E-03 ZZ -2.212920E-03 XY  1.745698E-03 XZ -1.058444E-03 YZ  1.198889E-03

 TENSOR IN PRINCIPAL AXIS SYSTEM
 AA  3.060377E-04 BB  2.901257E-03 CC -3.207295E-03

 PRINCIPAL AXES
         X             Y             Z
 A  6.891025E-01 -4.979007E-01 -5.265289E-01
 B  6.132901E-01  7.877446E-01  5.773876E-02
 C  3.860221E-01 -3.627028E-01  8.481943E-01

 ANGLES BETWEEN PRINCIPAL AXES AND ORIGINAL AXES (DEGREES)
         X             Y             Z
 A     46.440895    119.861208    121.771223
 B     52.172222     38.024763     86.689972
 C     67.292792    111.266280     31.984187


 POINT   ATOM  MASS NO  NUCLEAR G FACTOR
   81   81 SI     29      -1.1106000

 TENSOR IN ORIGINAL CARTESIAN AXES
 XX -1.182591E-02 YY  4.955246E-03 ZZ  6.870661E-03 XY -2.839587E-02 XZ  1.232388E-02 YZ  2.029183E-02

 TENSOR IN PRINCIPAL AXIS SYSTEM
 AA -4.299484E-02 BB  3.095001E-02 CC  1.204483E-02

 PRINCIPAL AXES
         X             Y             Z
 A  6.973705E-01  5.870030E-01 -4.112199E-01
 B -3.914205E-01  7.925690E-01  4.675729E-01
 C  6.003868E-01 -1.651117E-01  7.824793E-01

 ANGLES BETWEEN PRINCIPAL AXES AND ORIGINAL AXES (DEGREES)
         X             Y             Z
 A     45.783579     54.055378    114.281487
 B    113.042916     37.573762     62.123137
 C     53.102394     99.503723     38.511861


 POINT   ATOM  MASS NO  NUCLEAR G FACTOR
   82   82 SI     29      -1.1106000

 TENSOR IN ORIGINAL CARTESIAN AXES
 XX  7.830659E-02 YY  7.382334E-02 ZZ -1.521299E-01 XY  1.433782E-02 XZ  2.312057E-02 YZ -4.357690E-02

 TENSOR IN PRINCIPAL AXIS SYSTEM
 AA  9.127780E-02 BB  7.163436E-02 CC -1.629122E-01

 PRINCIPAL AXES
         X             Y             Z
 A  6.859767E-01  7.247509E-01 -6.459211E-02
 B -7.200509E-01  6.633836E-01 -2.035901E-01
 C -1.047027E-01  1.861676E-01  9.769232E-01

 ANGLES BETWEEN PRINCIPAL AXES AND ORIGINAL AXES (DEGREES)
         X             Y             Z
 A     46.687534     43.551871     93.703434
 B    136.058685     48.441564    101.746976
 C     96.010040     79.270783     12.332870


 POINT   ATOM  MASS NO  NUCLEAR G FACTOR
   83   83 SI     29      -1.1106000

 TENSOR IN ORIGINAL CARTESIAN AXES
 XX -6.728852E-04 YY -4.600143E-05 ZZ  7.188867E-04 XY -4.909608E-04 XZ -2.969576E-03 YZ  2.609325E-03

 TENSOR IN PRINCIPAL AXIS SYSTEM
 AA -3.589888E-03 BB -7.912451E-04 CC  4.381133E-03

 PRINCIPAL AXES
         X             Y             Z
 A  6.158657E-01 -4.100189E-01  6.727510E-01
 B  6.265790E-01  7.725547E-01 -1.027520E-01
 C -4.776067E-01  4.848131E-01  7.326992E-01

 ANGLES BETWEEN PRINCIPAL AXES AND ORIGINAL AXES (DEGREES)
         X             Y             Z
[...]
  79   79 SI    3.3775   -6.3332    8.7487  -0.48132E-02
  80   80 SI    8.6148   -0.9230    8.8747  -0.11590E-02
  81   81 SI   -8.1869    2.1816    1.0513  -0.11955E+00
  82   82 SI   -3.5377    6.3698    1.5749  -0.78940E-01
  83   83 SI   -6.2231    8.9997    3.9341   0.89534E-03
  84   84 SI   -1.2928    3.8604    4.3378  -0.50672E-02
  85   85 SI   -8.9924    6.3552    6.2051  -0.72661E-02
  86   86 SI   -4.1281    1.0969    6.2750  -0.18335E-01
  87   87 SI   -6.5705    3.7099    8.7984  -0.20779E-02
  88   88 SI   -1.3196    8.9882    8.8141  -0.29208E-02
  89   89 SI   -9.2083   -8.3875    2.0312  -0.38133E-01
  90   90 SI   -3.5606   -2.5919    0.1696  -0.15270E-01
  91   91 SI   -6.5194   -1.1999    3.2806  -0.22033E-02
  92   92 SI   -1.9932   -5.9672    2.6810  -0.25268E-01
  93   93 SI   -8.8039   -3.4185    6.3983  -0.14675E-01
  94   94 SI   -3.7263   -8.3020    6.2769  -0.29645E-02
  95   95 SI   -6.3987   -5.9987    8.9695  -0.82137E-03
  96   96 SI   -1.5636   -1.3700    8.8340  -0.88700E-02
  97   97 SI    1.1015    1.2315   11.2691  -0.53337E-02
  98   98 SI    6.1677    6.2802   11.7272   0.72176E-03
  99   99 SI    1.1220   -8.6803   11.5348   0.13342E-02
 100  100 SI    6.0060   -3.6914   11.2106  -0.42516E-02
 101  101 SI   -8.9799    1.4045   11.6619   0.20349E-02
 102  102 SI   -3.8669    6.2162   11.1698  -0.32587E-02
 103  103 SI   -9.0582   -8.4838   11.4585  -0.92921E-03
 104  104 SI   -4.0080   -3.5417   11.6791  -0.60184E-03
 105  105 SI    3.6139    8.8810   14.1135   0.26786E-02
 106  106 SI    8.6498    3.8880   14.3343   0.36946E-02
 107  107 SI    0.8618    6.3298   16.3029   0.37149E-02
 108  108 SI    6.2338    1.2017   16.7211  -0.17408E-02
 109  109 SI    3.6369    4.0410   18.6381   0.83510E-02
 110  110 SI    8.8264    8.7587   19.2477  -0.12412E-02
 111  111 SI    3.7251   -1.1413   13.9498   0.29201E-02
 112  112 SI    8.4058   -6.0344   14.2043  -0.55752E-02
 113  113 SI    1.2004   -3.6153   16.5528  -0.10868E-02
 114  114 SI    6.0421   -8.7517   16.8890  -0.51418E-03
 115  115 SI    3.2355   -6.3545   19.3581  -0.90787E-02
 116  116 SI    8.3056   -0.9851   20.0098  -0.50681E-02
 117  117 SI   -6.4864    8.7777   13.5626   0.26973E-02
 118  118 SI   -1.5335    3.5777   13.9135   0.18680E-02
 119  119 SI   -8.5930    6.4702   16.5639   0.13735E-01
 120  120 SI   -3.9839    1.3794   16.9995   0.30415E-02
 121  121 SI   -5.5227    4.9120   19.3014   0.15820E-02
 122  122 SI   -2.2202    8.0898   18.7006   0.22125E-01
 123  123 SI   -6.5222   -1.1151   14.3327   0.32404E-02
 124  124 SI   -1.2995   -6.0724   13.9511  -0.44011E-03
 125  125 SI   -9.1849   -3.4064   16.9935  -0.26674E-02
 126  126 SI   -3.8724   -8.8725   16.0259  -0.13537E-02
 127  127 SI   -6.0482   -6.1527   18.6956   0.62603E-03
 128  128 SI   -1.6825   -1.7326   19.2344   0.28332E-02
 129  129 HF   -3.2453    0.1417  -14.1391  -0.28383E-05
 130  130 HF   -2.4590   -8.3985  -18.5596   0.21123E-06
 131  131 HF   -6.8086   -4.6341  -16.0347  -0.57006E-07
 132  132 HF    1.0954   -5.5204  -15.9060   0.50387E-05
 133  133 HF    7.2155    4.8743  -18.9823  -0.29646E-06
 134  134 HF    2.5838    8.5525  -15.9693   0.77072E-07
 135  135 HF    7.1917   -7.8323  -17.4738   0.28215E-06
 136  136 HF   -3.2026    6.8791  -14.2475  -0.18992E-06
 137  137 HF    2.7247    0.4032  -16.8941   0.32639E-05
 138  138 HF   -7.4996    8.2110  -18.0224  -0.20037E-07
 139  139 HF   -8.2861    2.1908  -15.8361   0.22063E-05
 140  140 HF   -1.8611    3.1404   -2.2323  -0.86084E-06
 141  141 HF   -8.9250   -7.4750   -3.8282  -0.38111E-08
 142  142 HF   -5.1303   -9.8385   -6.6472   0.29554E-06
 143  143 HF    2.0245    7.9318   -5.1945  -0.74747E-06
 144  144 HF    3.9563    1.6161   -3.9541  -0.40186E-05
 145  145 HF    3.8788   -5.3914   -3.6448  -0.14600E-05
 146  146 HF   -8.6762   -9.6171  -11.3082  -0.87688E-07
 147  147 HF    9.5693   -2.7200   -1.0254   0.13848E-06
 148  148 HF    8.4497    6.8411   -6.1077  -0.55867E-06
 149  149 HF   -1.5036   -1.9308   -4.4060   0.15499E-05
 150  150 HF    1.6286    4.7546  -11.2114   0.61339E-05
 151  151 HF    1.0350   -1.6734  -10.2141   0.54978E-06
 152  152 HF    4.9001   -8.4783  -10.8478   0.34478E-06
 153  153 HF    7.3868    1.7965   -9.2774   0.30909E-07
 154  154 HF   -0.2194   -7.2639   -9.2341   0.41730E-06
 155  155 HF   -3.9154    5.3717   -7.9986  -0.68333E-06
 156  156 HF   -8.4817    0.1242   -5.3901   0.98535E-07
 157  157 HF    7.8107   -2.1333  -12.8917   0.45879E-05
 158  158 HF   -6.2673   -2.8987  -10.4689  -0.34916E-05
 159  159 HF    7.7861    6.3231  -13.4120   0.31867E-06
 160  160 HF    7.6652   -4.2497   -7.3317  -0.24248E-06
 *******************************************************************************
 HYPERFINE COUPLING CONSTANTS (AN)
 *******************************************************************************
 POINT  ATOM  MASS N0    NUCLEAR      AN (MT)       AN (MHZ)    AN (CM**(-1))
                        G FACTOR
   1    1 O      17   -0.7575220    0.35806E-01   0.10035E+01   0.33472E-04
   2    2 O      17   -0.7575220   -0.45877E-02  -0.12857E+00  -0.42887E-05
   3    3 O      17   -0.7575220   -0.27837E-01  -0.78012E+00  -0.26022E-04
   4    4 O      17   -0.7575220   -0.11915E+01  -0.33393E+02  -0.11139E-02
   5    5 O      17   -0.7575220   -0.57350E-01  -0.16072E+01  -0.53611E-04
   6    6 O      17   -0.7575220   -0.38089E-01  -0.10675E+01  -0.35606E-04
   7    7 O      17   -0.7575220   -0.15404E+00  -0.43171E+01  -0.14400E-03
   8    8 O      17   -0.7575220   -0.28047E-01  -0.78602E+00  -0.26219E-04
   9    9 O      17   -0.7575220    0.44153E-01   0.12374E+01   0.41274E-04
  10   10 O      17   -0.7575220   -0.97250E+00  -0.27254E+02  -0.90911E-03
  11   11 O      17   -0.7575220   -0.11755E+01  -0.32943E+02  -0.10989E-02
  12   12 O      17   -0.7575220    0.86349E-01   0.24199E+01   0.80720E-04
  13   13 O      17   -0.7575220    0.36225E-01   0.10152E+01   0.33863E-04
  14   14 O      17   -0.7575220   -0.19961E-01  -0.55939E+00  -0.18659E-04
  15   15 O      17   -0.7575220   -0.19635E+00  -0.55026E+01  -0.18355E-03
  16   16 O      17   -0.7575220    0.88745E-01   0.24871E+01   0.82960E-04
  17   17 O      17   -0.7575220    0.12995E+00   0.36418E+01   0.12148E-03
  18   18 O      17   -0.7575220    0.14304E+00   0.40086E+01   0.13371E-03
  19   19 O      17   -0.7575220   -0.33184E-01  -0.92997E+00  -0.31020E-04
  20   20 O      17   -0.7575220    0.62006E-02   0.17377E+00   0.57964E-05
  21   21 O      17   -0.7575220    0.13547E+00   0.37965E+01   0.12664E-03
  22   22 O      17   -0.7575220    0.31198E+00   0.87431E+01   0.29164E-03
  23   23 O      17   -0.7575220    0.14737E+00   0.41301E+01   0.13777E-03
  24   24 O      17   -0.7575220    0.80726E-01   0.22623E+01   0.75464E-04
  25   25 O      17   -0.7575220    0.11976E+00   0.33562E+01   0.11195E-03
  26   26 O      17   -0.7575220    0.17312E+01   0.48518E+02   0.16184E-02
  27   27 O      17   -0.7575220    0.16159E+01   0.45285E+02   0.15105E-02
  28   28 O      17   -0.7575220   -0.97365E+00  -0.27286E+02  -0.91018E-03
  29   29 O      17   -0.7575220    0.12263E+00   0.34368E+01   0.11464E-03
  30   30 O      17   -0.7575220    0.26252E+01   0.73572E+02   0.24541E-02
  31   31 O      17   -0.7575220    0.14087E+00   0.39480E+01   0.13169E-03
  32   32 O      17   -0.7575220   -0.46514E-01  -0.13035E+01  -0.43482E-04
  33   33 O      17   -0.7575220   -0.71979E+00  -0.20172E+02  -0.67287E-03
  34   34 O      17   -0.7575220   -0.18243E+00  -0.51127E+01  -0.17054E-03
  35   35 O      17   -0.7575220    0.50046E-01   0.14025E+01   0.46784E-04
  36   36 O      17   -0.7575220    0.18173E+01   0.50930E+02   0.16988E-02
  37   37 O      17   -0.7575220   -0.26255E+00  -0.73579E+01  -0.24543E-03
  38   38 O      17   -0.7575220    0.69014E-01   0.19341E+01   0.64515E-04
  39   39 O      17   -0.7575220   -0.35928E-01  -0.10069E+01  -0.33586E-04
  40   40 O      17   -0.7575220    0.49138E-01   0.13771E+01   0.45934E-04
  41   41 O      17   -0.7575220   -0.12729E+01  -0.35673E+02  -0.11899E-02
  42   42 O      17   -0.7575220    0.67606E-01   0.18947E+01   0.63199E-04
  43   43 O      17   -0.7575220    0.18478E-01   0.51783E+00   0.17273E-04
  44   44 O      17   -0.7575220    0.49429E+00   0.13852E+02   0.46207E-03
  45   45 O      17   -0.7575220    0.75244E+00   0.21087E+02   0.70339E-03
  46   46 O      17   -0.7575220   -0.73205E+00  -0.20516E+02  -0.68433E-03
  47   47 O      17   -0.7575220    0.66308E+00   0.18583E+02   0.61985E-03
  48   48 O      17   -0.7575220    0.22514E+00   0.63097E+01   0.21047E-03
  49   49 O      17   -0.7575220    0.42943E-01   0.12035E+01   0.40143E-04
  50   50 O      17   -0.7575220   -0.75054E+00  -0.21034E+02  -0.70162E-03
  51   51 O      17   -0.7575220   -0.13434E+00  -0.37649E+01  -0.12558E-03
  52   52 O      17   -0.7575220   -0.20862E+00  -0.58464E+01  -0.19502E-03
  53   53 O      17   -0.7575220   -0.24401E+00  -0.68384E+01  -0.22810E-03
  54   54 O      17   -0.7575220    0.55416E+00   0.15530E+02   0.51804E-03
  55   55 O      17   -0.7575220    0.28033E+00   0.78563E+01   0.26206E-03
  56   56 O      17   -0.7575220    0.81959E-01   0.22969E+01   0.76617E-04
  57   57 O      17   -0.7575220    0.38871E-01   0.10894E+01   0.36337E-04
  58   58 O      17   -0.7575220    0.69351E-02   0.19436E+00   0.64830E-05
  59   59 O      17   -0.7575220   -0.68244E+00  -0.19125E+02  -0.63795E-03
  60   60 O      17   -0.7575220   -0.48491E+00  -0.13589E+02  -0.45330E-03
  61   61 O      17   -0.7575220    0.77151E-01   0.21621E+01   0.72122E-04
  62   62 O      17   -0.7575220    0.86230E-01   0.24166E+01   0.80609E-04
  63   63 O      17   -0.7575220    0.69675E+00   0.19526E+02   0.65133E-03
  64   64 O      17   -0.7575220    0.10262E+01   0.28760E+02   0.95933E-03
  65   65 SI     29   -1.1106000    0.69884E+00   0.19585E+02   0.65328E-03
  66   66 SI     29   -1.1106000    0.31291E+01   0.87694E+02   0.29252E-02
  67   67 SI     29   -1.1106000   -0.26772E-01  -0.75030E+00  -0.25027E-04
  68   68 SI     29   -1.1106000    0.11230E+01   0.31472E+02   0.10498E-02
  69   69 SI     29   -1.1106000    0.14550E+00   0.40776E+01   0.13601E-03
  70   70 SI     29   -1.1106000    0.64821E+00   0.18166E+02   0.60595E-03
  71   71 SI     29   -1.1106000    0.91590E-01   0.25668E+01   0.85619E-04
  72   72 SI     29   -1.1106000    0.22945E-01   0.64303E+00   0.21449E-04
  73   73 SI     29   -1.1106000    0.46835E+00   0.13125E+02   0.43782E-03
  74   74 SI     29   -1.1106000   -0.68482E+00  -0.19192E+02  -0.64017E-03
  75   75 SI     29   -1.1106000    0.21622E+00   0.60596E+01   0.20213E-03
  76   76 SI     29   -1.1106000    0.48886E+00   0.13700E+02   0.45699E-03
  77   77 SI     29   -1.1106000    0.12978E+00   0.36370E+01   0.12132E-03
  78   78 SI     29   -1.1106000    0.82585E-01   0.23144E+01   0.77202E-04
  79   79 SI     29   -1.1106000    0.15264E+00   0.42777E+01   0.14269E-03
  80   80 SI     29   -1.1106000    0.36756E-01   0.10301E+01   0.34360E-04
  81   81 SI     29   -1.1106000    0.37914E+01   0.10625E+03   0.35442E-02
  82   82 SI     29   -1.1106000    0.25034E+01   0.70157E+02   0.23402E-02
  83   83 SI     29   -1.1106000   -0.28394E-01  -0.79573E+00  -0.26543E-04
  84   84 SI     29   -1.1106000    0.16069E+00   0.45035E+01   0.15022E-03
  85   85 SI     29   -1.1106000    0.23043E+00   0.64577E+01   0.21541E-03
  86   86 SI     29   -1.1106000    0.58146E+00   0.16295E+02   0.54356E-03
  87   87 SI     29   -1.1106000    0.65896E-01   0.18467E+01   0.61601E-04
  88   88 SI     29   -1.1106000    0.92627E-01   0.25959E+01   0.86589E-04
  89   89 SI     29   -1.1106000    0.12093E+01   0.33890E+02   0.11305E-02
  90   90 SI     29   -1.1106000    0.48426E+00   0.13571E+02   0.45269E-03
  91   91 SI     29   -1.1106000    0.69871E-01   0.19581E+01   0.65316E-04
  92   92 SI     29   -1.1106000    0.80132E+00   0.22457E+02   0.74908E-03
  93   93 SI     29   -1.1106000    0.46539E+00   0.13042E+02   0.43505E-03
  94   94 SI     29   -1.1106000    0.94012E-01   0.26347E+01   0.87883E-04
  95   95 SI     29   -1.1106000    0.26048E-01   0.72998E+00   0.24350E-04
  96   96 SI     29   -1.1106000    0.28129E+00   0.78832E+01   0.26295E-03
  97   97 SI     29   -1.1106000    0.16915E+00   0.47403E+01   0.15812E-03
  98   98 SI     29   -1.1106000   -0.22889E-01  -0.64146E+00  -0.21397E-04
  99   99 SI     29   -1.1106000   -0.42312E-01  -0.11858E+01  -0.39554E-04
 100  100 SI     29   -1.1106000    0.13483E+00   0.37786E+01   0.12604E-03
 101  101 SI     29   -1.1106000   -0.64530E-01  -0.18085E+01  -0.60324E-04
 102  102 SI     29   -1.1106000    0.10334E+00   0.28962E+01   0.96606E-04
 103  103 SI     29   -1.1106000    0.29468E-01   0.82583E+00   0.27547E-04
 104  104 SI     29   -1.1106000    0.19086E-01   0.53488E+00   0.17842E-04
 105  105 SI     29   -1.1106000   -0.84945E-01  -0.23806E+01  -0.79408E-04
 106  106 SI     29   -1.1106000   -0.11717E+00  -0.32836E+01  -0.10953E-03
 107  107 SI     29   -1.1106000   -0.11781E+00  -0.33016E+01  -0.11013E-03
 108  108 SI     29   -1.1106000    0.55206E-01   0.15471E+01   0.51607E-04
 109  109 SI     29   -1.1106000   -0.26483E+00  -0.74219E+01  -0.24757E-03
 110  110 SI     29   -1.1106000    0.39363E-01   0.11031E+01   0.36797E-04
 111  111 SI     29   -1.1106000   -0.92603E-01  -0.25952E+01  -0.86566E-04
 112  112 SI     29   -1.1106000    0.17681E+00   0.49550E+01   0.16528E-03
 113  113 SI     29   -1.1106000    0.34465E-01   0.96587E+00   0.32218E-04
 114  114 SI     29   -1.1106000    0.16306E-01   0.45698E+00   0.15243E-04
 115  115 SI     29   -1.1106000    0.28791E+00   0.80686E+01   0.26914E-03
 116  116 SI     29   -1.1106000    0.16072E+00   0.45043E+01   0.15025E-03
 117  117 SI     29   -1.1106000   -0.85537E-01  -0.23972E+01  -0.79961E-04
 118  118 SI     29   -1.1106000   -0.59241E-01  -0.16602E+01  -0.55379E-04
 119  119 SI     29   -1.1106000   -0.43558E+00  -0.12207E+02  -0.40718E-03
 120  120 SI     29   -1.1106000   -0.96453E-01  -0.27031E+01  -0.90166E-04
 121  121 SI     29   -1.1106000   -0.50169E-01  -0.14060E+01  -0.46898E-04
 122  122 SI     29   -1.1106000   -0.70165E+00  -0.19664E+02  -0.65591E-03
 123  123 SI     29   -1.1106000   -0.10276E+00  -0.28799E+01  -0.96063E-04
 124  124 SI     29   -1.1106000    0.13957E-01   0.39114E+00   0.13047E-04
 125  125 SI     29   -1.1106000    0.84591E-01   0.23707E+01   0.79077E-04
 126  126 SI     29   -1.1106000    0.42930E-01   0.12031E+01   0.40132E-04
 127  127 SI     29   -1.1106000   -0.19853E-01  -0.55638E+00  -0.18559E-04
 128  128 SI     29   -1.1106000   -0.89847E-01  -0.25180E+01  -0.83990E-04
 129  129 HF    177    0.2267000   -0.18373E-04  -0.51492E-03  -0.17176E-07
 129  129 HF    179   -0.1424000    0.11541E-04   0.32344E-03   0.10789E-07
 130  130 HF    177    0.2267000    0.13673E-05   0.38319E-04   0.12782E-08
 130  130 HF    179   -0.1424000   -0.85888E-06  -0.24070E-04  -0.80289E-09
 131  131 HF    177    0.2267000   -0.36902E-06  -0.10342E-04  -0.34496E-09
 131  131 HF    179   -0.1424000    0.23180E-06   0.64961E-05   0.21669E-09
 132  132 HF    177    0.2267000    0.32617E-04   0.91408E-03   0.30490E-07
 132  132 HF    179   -0.1424000   -0.20488E-04  -0.57417E-03  -0.19152E-07
 133  133 HF    177    0.2267000   -0.19191E-05  -0.53782E-04  -0.17940E-08
 133  133 HF    179   -0.1424000    0.12055E-05   0.33783E-04   0.11269E-08
 134  134 HF    177    0.2267000    0.49891E-06   0.13982E-04   0.46639E-09
 134  134 HF    179   -0.1424000   -0.31339E-06  -0.87826E-05  -0.29296E-09
 135  135 HF    177    0.2267000    0.18264E-05   0.51186E-04   0.17074E-08
 135  135 HF    179   -0.1424000   -0.11473E-05  -0.32152E-04  -0.10725E-08
 136  136 HF    177    0.2267000   -0.12294E-05  -0.34453E-04  -0.11492E-08
 136  136 HF    179   -0.1424000    0.77223E-06   0.21642E-04   0.72189E-09
 137  137 HF    177    0.2267000    0.21128E-04   0.59211E-03   0.19751E-07
 137  137 HF    179   -0.1424000   -0.13271E-04  -0.37193E-03  -0.12406E-07
 138  138 HF    177    0.2267000   -0.12970E-06  -0.36349E-05  -0.12125E-09
 138  138 HF    179   -0.1424000    0.81472E-07   0.22832E-05   0.76161E-10
 139  139 HF    177    0.2267000    0.14282E-04   0.40025E-03   0.13351E-07
 139  139 HF    179   -0.1424000   -0.89711E-05  -0.25142E-03  -0.83863E-08
 140  140 HF    177    0.2267000   -0.55725E-05  -0.15617E-03  -0.52092E-08
 140  140 HF    179   -0.1424000    0.35003E-05   0.98096E-04   0.32721E-08
 141  141 HF    177    0.2267000   -0.24670E-07  -0.69139E-06  -0.23062E-10
 141  141 HF    179   -0.1424000    0.15497E-07   0.43429E-06   0.14486E-10
 142  142 HF    177    0.2267000    0.19131E-05   0.53615E-04   0.17884E-08
 142  142 HF    179   -0.1424000   -0.12017E-05  -0.33678E-04  -0.11234E-08
 143  143 HF    177    0.2267000   -0.48386E-05  -0.13560E-03  -0.45232E-08
 143  143 HF    179   -0.1424000    0.30393E-05   0.85177E-04   0.28412E-08
 144  144 HF    177    0.2267000   -0.26014E-04  -0.72904E-03  -0.24318E-07
 144  144 HF    179   -0.1424000    0.16340E-04   0.45794E-03   0.15275E-07
 145  145 HF    177    0.2267000   -0.94511E-05  -0.26487E-03  -0.88350E-08
 145  145 HF    179   -0.1424000    0.59366E-05   0.16637E-03   0.55496E-08
 146  146 HF    177    0.2267000   -0.56763E-06  -0.15908E-04  -0.53063E-09
 146  146 HF    179   -0.1424000    0.35655E-06   0.99924E-05   0.33331E-09
 147  147 HF    177    0.2267000    0.89645E-06   0.25123E-04   0.83802E-09
 147  147 HF    179   -0.1424000   -0.56310E-06  -0.15781E-04  -0.52639E-09
 148  148 HF    177    0.2267000   -0.36164E-05  -0.10135E-03  -0.33807E-08
 148  148 HF    179   -0.1424000    0.22716E-05   0.63662E-04   0.21235E-08
 149  149 HF    177    0.2267000    0.10033E-04   0.28117E-03   0.93788E-08
 149  149 HF    179   -0.1424000   -0.63020E-05  -0.17661E-03  -0.58912E-08
 150  150 HF    177    0.2267000    0.39706E-04   0.11128E-02   0.37118E-07
 150  150 HF    179   -0.1424000   -0.24941E-04  -0.69898E-03  -0.23315E-07
 151  151 HF    177    0.2267000    0.35589E-05   0.99738E-04   0.33269E-08
 151  151 HF    179   -0.1424000   -0.22355E-05  -0.62650E-04  -0.20898E-08
 152  152 HF    177    0.2267000    0.22318E-05   0.62547E-04   0.20864E-08
 152  152 HF    179   -0.1424000   -0.14019E-05  -0.39289E-04  -0.13105E-08
 153  153 HF    177    0.2267000    0.20008E-06   0.56073E-05   0.18704E-09
 153  153 HF    179   -0.1424000   -0.12568E-06  -0.35222E-05  -0.11749E-09
 154  154 HF    177    0.2267000    0.27013E-05   0.75703E-04   0.25252E-08
 154  154 HF    179   -0.1424000   -0.16968E-05  -0.47552E-04  -0.15862E-08
 155  155 HF    177    0.2267000   -0.44234E-05  -0.12397E-03  -0.41351E-08
 155  155 HF    179   -0.1424000    0.27785E-05   0.77869E-04   0.25974E-08
 156  156 HF    177    0.2267000    0.63785E-06   0.17876E-04   0.59627E-09
 156  156 HF    179   -0.1424000   -0.40066E-06  -0.11228E-04  -0.37454E-09
 157  157 HF    177    0.2267000    0.29699E-04   0.83231E-03   0.27763E-07
 157  157 HF    179   -0.1424000   -0.18655E-04  -0.52281E-03  -0.17439E-07
 158  158 HF    177    0.2267000   -0.22602E-04  -0.63343E-03  -0.21129E-07
 158  158 HF    179   -0.1424000    0.14198E-04   0.39788E-03   0.13272E-07
 159  159 HF    177    0.2267000    0.20628E-05   0.57811E-04   0.19284E-08
 159  159 HF    179   -0.1424000   -0.12958E-05  -0.36313E-04  -0.12113E-08
 160  160 HF    177    0.2267000   -0.15697E-05  -0.43990E-04  -0.14673E-08
 160  160 HF    179   -0.1424000    0.98597E-06   0.27632E-04   0.92170E-09

  CONVERSION FACTORS 
     AN (MILLI T)        28.554470 * GN * P(SPIN) (BOHR**(-3))
     AN (MHZ)            28.024940 * AN (MILLI T) 
     AN (CM**(-1))   0.3335641E-04 * AN (MHZ) 
 TTTTTTTTTTTTTTTTTTTTTTTTTTTTTT ISOTROPIC   TELAPSE    50738.99 TCPU   223172.60
 ENDPROP   
 TTTTTTTTTTTTTTTTTTTTTTTTTTTTTT END         TELAPSE    50738.99 TCPU   223172.60
 EEEEEEEEEE TERMINATION  DATE 13 08 2015 TIME 02:08:00.9
