
         
 *******************************************************************************
 *                                                                             *
 *                                CRYSTAL09                                    *
 *                              public : 2.0                                   *
 *                      December 10th, 2012 - sequential executable            *
 *                                                                             *
 *                                                                             *
 *                                                                             *
 *                              MAIN AUTHORS                                   *
 *                                                                             *
 *    R. DOVESI(1,10), V.R. SAUNDERS(2), C. ROETTI(1,10), R. ORLANDO (1,3),    *
 *  C.M. ZICOVICH-WILSON(1,4), F. PASCALE(5), B. CIVALLERI(1,10), K. DOLL(6),  *
 *       N.M. HARRISON(2,7), I. J. BUSH(2), Ph. D'ARCO(8), M. LLUNELL(9)       *
 *                                                                             *
 * (1) THEORETICAL CHEMISTRY GROUP - UNIVERSITA' DI TORINO - TORINO (ITALY)    *
 *      http://www.crystal.unito.it                                            *
 * (2) COMPUTATIONAL SCIENCE & ENGINEERING DEPARTMENT - CCLRC DARESBURY (UK)   *
 *     http://www.cse.clrc.ac.uk/cmg/CRYSTAL/                                  *
 * (3) UNIVERSITA' DEL PIEMONTE ORIENTALE - ALESSANDRIA (ITALY)                *
 * (4) UNIVERSIDAD AUTONOMA DEL ESTADO DE MORELOS - CUERNAVACA (MEXICO)        *
 * (5) UNIVERSITE' HENRI POINCARE' - NANCY (FRANCE)                            *
 * (6) MPI FUER FESTKOERPERFORSCHUNG - STUTTGART (GERMANY)                     *
 * (7) IMPERIAL COLLEGE - LONDON (UK)                                          *
 * (8) UNIVERSITE' PIERRE ET MARIE CURIE - PARIS (FRANCE)                      *
 * (9) UNIVERSIDAD DE BARCELONA - BARCELONA (SPAIN)                            *
 *(10) NIS - NANOSTRUCTURED INTERFACES AND SURFACES - TORINO (ITALY)           *
 *     http://www.crystal.unito.it                                             *
 *******************************************************************************
 EEEEEEEEEE STARTING  DATE 12 05 2015 TIME 14:59:43.6

 *******************************************************************************
 Created with astools                                                            
 CRYSTAL - PROPERTIES - TYPE OF CALCULATION :  UNRESTRICTED OPEN SHELL
 *******************************************************************************
 SPIN POLARIZED SYSTEM: SUMMED SPIN DENSITY    0.00000000

 KOHN-SHAM HAMILTONIAN

 (EXCHANGE)[CORRELATION] FUNCTIONAL:(BECKE)[LEE-YANG-PARR]

 NON-LOCAL WEIGHTING FACTOR (EXCHANGE) =           0.9000
 NON-LOCAL WEIGHTING FACTOR [CORRELATION] =        0.8100

 HYBRID EXCHANGE - PERCENTAGE OF FOCK EXCHANGE     5.0000

 SPIN POLARIZED DFT SELECTED

 DIRECT LATTICE VECTOR COMPONENTS (ANGSTROM)
        10.85300    0.00000    0.00000
         0.00000   10.63950    0.00000
         0.00000    0.00000   21.18410

 LATTICE PARAMETERS  (ANGSTROM AND DEGREES) - PRIMITIVE CELL
       A          B          C         ALPHA      BETA     GAMMA        VOLUME
   10.85300   10.63950   21.18410     47.6259   47.6259   47.6259    2446.13848
 *******************************************************************************
 N. OF ATOMS PER CELL      148  COULOMB OVERLAP TOL         (T1) 10** -8
 NUMBER OF SHELLS          776  COULOMB PENETRATION TOL     (T2) 10** -8
 NUMBER OF AO             2752  EXCHANGE OVERLAP TOL        (T3) 10** -8
 N. OF ELECTRONS PER CELL 1736  EXCHANGE PSEUDO OVP (F(G))  (T4) 10** -8
 CORE ELECTRONS PER CELL  1032  EXCHANGE PSEUDO OVP (P(G))  (T5) 10**-16
 N. OF SYMMETRY OPERATORS    1  POLE ORDER IN MONO ZONE                4
 *******************************************************************************
   ATOM N.AT.  SHELL    X(A)      Y(A)      Z(A)      EXAD       N.ELECT.
 *******************************************************************************
    1    8 O     4    -5.283     3.535    -8.588   1.900E-01       8.694
    2    8 O     4    -2.820     4.598    -9.630   1.900E-01       8.669
    3    8 O     4     1.706     0.533    -8.050   1.900E-01       8.616
    4    8 O     4    -5.003    -4.589    -9.182   1.900E-01       8.635
    5    8 O     4     0.048    -3.403    -7.272   1.900E-01       8.802
    6    8 O     4     3.564     3.342   -10.252   1.900E-01       8.661
    7    8 O     4    -0.947     1.012    -7.305   1.900E-01       8.611
    8    8 O     4     0.482     0.632   -10.526   1.900E-01       8.640
    9    8 O     4     5.392    -2.101    -7.982   1.900E-01       8.519
   10    8 O     4     0.222     4.394    -7.438   1.900E-01       8.662
   11    8 O     4     2.438    -2.041    -7.829   1.900E-01       8.692
   12    8 O     4    -3.511     4.771    -7.183   1.900E-01       8.644
   13    8 O     4     1.453    -3.938    -9.433   1.900E-01       8.581
   14    8 O     4    -0.488    -1.057    -8.840   1.900E-01       8.732
   15    8 O     4    -3.200    -2.739    -9.534   1.900E-01       8.727
   16    8 O     4     5.209    -2.151   -10.562   1.900E-01       8.801
   17    8 O     4     4.118     1.308    -8.542   1.900E-01       8.653
   18    8 O     4     2.803    -1.405    -4.578   1.900E-01       8.595
   19    8 O     4     2.922     3.591    -7.794   1.900E-01       8.655
   20    8 O     4     1.974     2.692    -3.003   1.900E-01       8.700
   21    8 O     4     2.244    -4.690    -6.944   1.900E-01       8.587
   22    8 O     4    -1.852     3.475    -0.552   1.900E-01       8.788
   23    8 O     4     3.840     1.003    -4.029   1.900E-01       8.644
   24    8 O     4    -3.463     2.181    -6.471   1.900E-01       8.640
   25    8 O     4     1.504    -3.208    -2.280   1.900E-01       8.593
   26    8 O     4    -1.747     1.321    -4.835   1.900E-01       8.627
   27    8 O     4     5.318     5.313    -2.899   1.900E-01       8.662
   28    8 O     4     1.547     5.309    -3.873   1.900E-01       8.650
   29    8 O     4     0.621    -0.880    -6.258   1.900E-01       8.755
   30    8 O     4    -0.762    -1.252     0.124   1.900E-01       8.648
   31    8 O     4    -1.489    -4.333    -5.586   1.900E-01       8.817
   32    8 O     4     5.396    -3.728    -4.873   1.900E-01       8.610
   33    8 O     4    -1.865    -1.625    -6.099   1.900E-01       8.532
   34    8 O     4     5.349    -0.448    -0.407   1.900E-01       8.705
   35    8 O     4    -5.075    -3.900     0.747   1.900E-01       8.628
   36    8 O     4    -5.300    -1.145    -4.614   1.900E-01       8.666
   37    8 O     4    -4.892    -2.203    -2.334   1.900E-01       8.616
   38    8 O     4    -1.231     1.496    -2.355   1.900E-01       8.819
   39    8 O     4    -5.187     4.375    -0.485   1.900E-01       8.585
   40    8 O     4    -3.288     2.568    -2.959   1.900E-01       8.687
   41    8 O     4     0.664    -0.046    -3.743   1.900E-01       8.581
   42    8 O     4     0.839     0.486    -1.072   1.900E-01       8.526
   43    8 O     4     3.332    -4.994    -1.327   1.900E-01       8.606
   44    8 O     4    -0.769    -4.340    -3.244   1.900E-01       8.664
   45    8 O     4    -3.609     1.421    -0.578   1.900E-01       8.818
   46    8 O     4     1.709     3.454    -5.554   1.900E-01       8.594
   47    8 O     4    -0.395     3.439    -3.762   1.900E-01       8.659
   48    8 O     4     3.886    -0.051    -6.463   1.900E-01       8.628
   49    8 O     4    -5.144     4.125    -5.279   1.900E-01       8.578
   50    8 O     4    -2.507     4.080    -4.813   1.900E-01       8.831
   51    8 O     4    -3.164    -3.261    -3.974   1.900E-01       8.613
   52    8 O     4    -2.741     5.203    -2.577   1.900E-01       8.586
   53    8 O     4     0.501    -2.719    -4.685   1.900E-01       8.875
   54    8 O     4    -0.733    -4.805    -0.701   1.900E-01       8.614
   55    8 O     4     3.525    -2.296    -0.794   1.900E-01       8.790
   56    8 O     4     4.420     3.039    -2.386   1.900E-01       8.728
   57   14 SI    6     0.196     0.136     0.444   6.000E-01      13.404
   58   14 SI    6     3.196     3.060     0.451   6.000E-01      13.883
   59   14 SI    6     1.844     4.426     1.878   6.000E-01      14.018
   60   14 SI    6     4.671     1.854     1.900   6.000E-01      14.056
   61   14 SI    6     0.549     3.192     3.462   6.000E-01      14.088
   62   14 SI    6     3.202     0.568     3.255   6.000E-01      14.002
   63   14 SI    6     1.925     1.864     4.799   6.000E-01      13.986
   64   14 SI    6     4.461     4.454     4.778   6.000E-01      13.990
   65   14 SI    6     0.043    -4.965     0.813   6.000E-01      13.601
   66   14 SI    6     2.805    -2.655     0.836   6.000E-01      13.683
   67   14 SI    6     1.848    -0.788     1.862   6.000E-01      14.082
   68   14 SI    6     4.703    -3.391     1.953   6.000E-01      13.652
   69   14 SI    6     0.524    -2.022     3.403   6.000E-01      14.028
   70   14 SI    6     3.287    -4.863     3.214   6.000E-01      14.050
   71   14 SI    6     1.920    -3.485     4.626   6.000E-01      13.995
   72   14 SI    6     4.498    -0.759     4.721   6.000E-01      14.001
   73   14 SI    6    -4.598     0.416     0.648   6.000E-01      13.313
   74   14 SI    6    -1.403     3.749     1.272   6.000E-01      13.931
   75   14 SI    6    -3.416     4.373     2.288   6.000E-01      14.069
   76   14 SI    6    -0.658     1.701     2.062   6.000E-01      14.007
   77   14 SI    6    -4.951     3.094     3.476   6.000E-01      14.007
   78   14 SI    6    -2.212     0.482     3.378   6.000E-01      14.029
   79   14 SI    6    -3.538     1.824     4.812   6.000E-01      13.986
   80   14 SI    6    -0.877     4.522     4.810   6.000E-01      13.987
   81   14 SI    6    -4.195    -5.251     0.388   6.000E-01      13.298
   82   14 SI    6    -1.344    -1.858    -1.338   6.000E-01      13.393
   83   14 SI    6    -3.260    -1.080     1.983   6.000E-01      13.952
   84   14 SI    6    -0.957    -3.358     2.224   6.000E-01      13.846
   85   14 SI    6    -4.896    -2.028     3.381   6.000E-01      14.064
   86   14 SI    6    -2.273    -4.702     3.568   6.000E-01      14.042
   87   14 SI    6    -3.639    -3.347     4.855   6.000E-01      14.004
   88   14 SI    6    -0.867    -0.767     4.854   6.000E-01      13.990
   89   14 SI    6     0.524     0.584     6.184   6.000E-01      13.985
   90   14 SI    6     3.167     3.159     6.310   6.000E-01      14.013
   91   14 SI    6     0.546    -4.756     6.065   6.000E-01      13.997
   92   14 SI    6     3.169    -2.126     6.105   6.000E-01      13.981
   93   14 SI    6    -4.967     0.530     6.129   6.000E-01      13.997
   94   14 SI    6    -2.226     3.214     6.199   6.000E-01      13.966
   95   14 SI    6    -5.046    -4.755     6.058   6.000E-01      14.004
   96   14 SI    6    -2.253    -2.102     6.282   6.000E-01      13.983
   97   14 SI    6     1.722     4.553     7.616   6.000E-01      14.019
   98   14 SI    6     4.569     1.790     7.653   6.000E-01      14.029
   99   14 SI    6     0.280     3.397     9.143   6.000E-01      14.052
  100   14 SI    6     3.368     0.256     9.093   6.000E-01      14.144
  101   14 SI    6     1.560     1.572     9.868   6.000E-01      13.373
  102   14 SI    6     4.366     4.201     9.771   6.000E-01      13.480
  103   14 SI    6     1.854    -0.802     7.563   6.000E-01      14.052
  104   14 SI    6     4.522    -3.438     7.514   6.000E-01      14.037
  105   14 SI    6     0.504    -2.142     8.986   6.000E-01      14.009
  106   14 SI    6     3.120    -4.681     8.916   6.000E-01      14.078
  107   14 SI    6     2.096    -3.138    10.414   6.000E-01      13.638
  108   14 SI    6     3.631    -1.327   -10.096   6.000E-01      13.535
  109   14 SI    6    -3.668     4.621     7.421   6.000E-01      14.013
  110   14 SI    6    -0.814     1.931     7.578   6.000E-01      14.069
  111   14 SI    6    -4.695     3.087     8.860   6.000E-01      14.124
  112   14 SI    6    -2.168     0.592     8.904   6.000E-01      14.026
  113   14 SI    6    -3.295     1.962    10.390   6.000E-01      13.963
  114   14 SI    6    -2.020     3.948    10.191   6.000E-01      13.652
  115   14 SI    6    -3.648    -0.690     7.622   6.000E-01      14.037
  116   14 SI    6    -0.775    -3.487     7.524   6.000E-01      14.013
  117   14 SI    6    -4.879    -2.236     8.955   6.000E-01      13.672
  118   14 SI    6    -2.242    -4.781     8.815   6.000E-01      14.032
  119   14 SI    6    -2.754    -2.710     9.870   6.000E-01      13.804
  120   14 SI    6    -0.690    -0.608    10.312   6.000E-01      13.597
  121   14 SI    6     4.060     2.906    -8.722   6.000E-01      12.658
  122   14 SI    6     0.247    -0.074    -7.655   6.000E-01      12.645
  123   14 SI    6     1.674    -3.434    -7.869   6.000E-01      12.892
  124   14 SI    6    -4.147     4.716    -8.690   6.000E-01      12.661
  125   14 SI    6     3.293    -0.104    -7.999   6.000E-01      12.860
  126   14 SI    6    -4.863    -2.933    -9.136   6.000E-01      12.921
  127   14 SI    6    -2.385    -1.010    -9.060   6.000E-01      13.342
  128   14 SI    6     3.316     1.747    -2.597   6.000E-01      13.036
  129   14 SI    6    -2.248     5.197    -1.039   6.000E-01      13.041
  130   14 SI    6     4.102    -0.386    -4.896   6.000E-01      12.714
  131   14 SI    6    -2.323     0.907    -6.337   6.000E-01      12.920
  132   14 SI    6     0.747    -3.975    -3.478   6.000E-01      12.743
  133   14 SI    6    -0.853    -2.816    -5.962   6.000E-01      12.829
  134   14 SI    6    -4.695    -2.583    -3.948   6.000E-01      12.694
  135   14 SI    6     3.195    -3.453    -2.085   6.000E-01      13.206
  136   14 SI    6    -1.826     2.599    -3.804   6.000E-01      12.649
  137   14 SI    6    -1.830     1.695    -0.656   6.000E-01      13.122
  138   14 SI    6     4.536     4.548    -1.663   6.000E-01      12.889
  139   14 SI    6     1.196     3.674    -4.028   6.000E-01      12.735
  140   14 SI    6     1.239    -1.138    -4.803   6.000E-01      12.663
  141   14 SI    6    -4.432     1.600    -2.272   6.000E-01      13.106
  142   14 SI    6    -3.704     3.721    -5.934   6.000E-01      12.806
  143   14 SI    6    -0.997    -5.134    -7.652   6.000E-01      13.033
  144   14 SI    6    -0.182     0.075    -2.332   6.000E-01      13.276
  145   14 SI    6     1.798     4.347    -6.919   6.000E-01      12.719
  146   14 SI    6     4.696    -1.216    -1.722   6.000E-01      13.114
  147   14 SI    6     4.926    -5.263    -4.487   6.000E-01      13.084
  148   14 SI    6    -2.207    -4.651    -3.988   6.000E-01      12.589
 *******************************************************************************
 DE(K)                   0.000E+00  ENERGY LEVEL SHIFTING        0.00000
 TOTAL ENERGY -3.0844384124334E+04  CONVERGENCE ON ENER       -1.642E-08
 KIN. ENERGY   3.0736422057323E+04  VIR. COEFF.           1.03675710E+00
 N. OF SCF CYCLES               67  FERMI ENERGY              -0.974E-01
 WEIGHT OF F(I) IN F(I+1)      95
 SHRINK. FACT.(MONKH.)     2  2  2  SHRINKING FACTOR(GILAT NET)        2
 NUMBER OF K POINTS IN THE IBZ   8  CELL VOLUME (A.U.)       16507.36094
 *******************************************************************************

 GCALCO - MAX INDICES DIRECT LATTICE VECTOR    18    19     9
 NO.OF VECTORS CREATED 6999 STARS 1060 RMAX   301.97758 BOHR

 DIMENSIONS  P(G)= 6420422 F(G)= 1144769 P(G),F(G) (IRR) 3218667
 MAX G-VECTOR INDEX FOR 1- AND 2-ELECTRON INTEGRALS  43


 CAPPA:IS1  2;IS2  2;IS3  2; K PTS MONK NET    8; SYMMOPS: K SPACE  2;G SPACE  1


 CAPPA:IS1  6;IS2  6;IS3  3; K PTS MONK NET   56; SYMMOPS: K SPACE  2;G SPACE  1

 *******************************************************************************
 RESTART WITH NEW K POINTS NET
 *******************************************************************************
 POINTS IN THE IBZ                  56 POINTS(GILAT NET)                56
 SHRINK FACTORS(MONK.)         6  6  3 SHRINK FACTOR(GILAT)              6
 *******************************************************************************
 *** K POINTS COORDINATES (OBLIQUE COORDINATES IN UNITS OF IS =  6)
   1-R(  0  0  0)   2-C(  1  0  0)   3-C(  2  0  0)   4-R(  3  0  0)
   5-C(  0  1  0)   6-C(  1  1  0)   7-C(  2  1  0)   8-C(  3  1  0)
   9-C(  4  1  0)  10-C(  5  1  0)  11-C(  0  2  0)  12-C(  1  2  0)
  13-C(  2  2  0)  14-C(  3  2  0)  15-C(  4  2  0)  16-C(  5  2  0)
  17-R(  0  3  0)  18-C(  1  3  0)  19-C(  2  3  0)  20-R(  3  3  0)
  21-C(  0  0  1)  22-C(  1  0  1)  23-C(  2  0  1)  24-C(  3  0  1)
  25-C(  4  0  1)  26-C(  5  0  1)  27-C(  0  1  1)  28-C(  1  1  1)
  29-C(  2  1  1)  30-C(  3  1  1)  31-C(  4  1  1)  32-C(  5  1  1)
  33-C(  0  2  1)  34-C(  1  2  1)  35-C(  2  2  1)  36-C(  3  2  1)
  37-C(  4  2  1)  38-C(  5  2  1)  39-C(  0  3  1)  40-C(  1  3  1)
  41-C(  2  3  1)  42-C(  3  3  1)  43-C(  4  3  1)  44-C(  5  3  1)
  45-C(  0  4  1)  46-C(  1  4  1)  47-C(  2  4  1)  48-C(  3  4  1)
  49-C(  4  4  1)  50-C(  5  4  1)  51-C(  0  5  1)  52-C(  1  5  1)
  53-C(  2  5  1)  54-C(  3  5  1)  55-C(  4  5  1)  56-C(  5  5  1)

 FERMI ENERGY AND DENSITY MATRIX CALCULATION ON COMPUTED EIGENVECTORS
 DENSITY MATRIX AT SCF CYCLE ( 67+1)


    ALPHA      ELECTRONS
 INSULATING STATE
 TOP OF VALENCE BANDS -    BAND    868; K    4; EIG -9.7374082E-02 AU
 TOP OF VALENCE BANDS -    BAND    868; K    1; EIG -9.9025867E-02 AU
 BOTTOM OF VIRTUAL BANDS - BAND    869; K   17; EIG -9.2713670E-02 AU
 BOTTOM OF VIRTUAL BANDS - BAND    869; K    1; EIG -9.0047412E-02 AU

    BETA       ELECTRONS
 INSULATING STATE
 TOP OF VALENCE BANDS -    BAND    868; K    4; EIG -9.7358286E-02 AU
 TOP OF VALENCE BANDS -    BAND    868; K    1; EIG -9.9025867E-02 AU
 BOTTOM OF VIRTUAL BANDS - BAND    869; K   17; EIG -9.2698364E-02 AU
 BOTTOM OF VIRTUAL BANDS - BAND    869; K    1; EIG -9.0047412E-02 AU

 CORE DENSITY MATRIX CALCULATION
 TTTTTTTTTTTTTTTTTTTTTTTTTTTTTT NEWK        TELAPSE    92718.41 TCPU    92562.31
 TTTTTTTTTTTTTTTTTTTTTTTTTTTTTT SETPRINT    TELAPSE    92718.41 TCPU    92562.31

 *******************************************************************************
 HYPERFINE ELECTRON-NUCLEAR SPIN INTERACTION TENSOR
 ANISOTROPIC COMPONENTS - THE TENSOR IS TRACELESS
 *******************************************************************************


 POINT   ATOM  MASS NO  NUCLEAR G FACTOR
    1    1 O      17      -0.7575220

 TENSOR IN ORIGINAL CARTESIAN AXES
 XX -9.054714E-07 YY -6.986044E-07 ZZ  1.604076E-06 XY -6.156728E-07 XZ -1.079705E-06 YZ  2.061969E-06

 TENSOR IN PRINCIPAL AXIS SYSTEM
 AA -1.282131E-06 BB -1.909254E-06 CC  3.191385E-06

 PRINCIPAL AXES
         X             Y             Z
 A  9.566672E-01  1.671568E-01  2.384250E-01
 B -2.271419E-02  8.591582E-01 -5.112058E-01
 C -2.902963E-01  4.836382E-01  8.257253E-01

 ANGLES BETWEEN PRINCIPAL AXES AND ORIGINAL AXES (DEGREES)
         X             Y             Z
 A     16.928828     80.377448     76.206400
 B     91.301539     30.777809    120.744179
 C    106.875695     61.076713     34.337910


 POINT   ATOM  MASS NO  NUCLEAR G FACTOR
    2    2 O      17      -0.7575220

 TENSOR IN ORIGINAL CARTESIAN AXES
 XX  4.054323E-07 YY -4.515848E-07 ZZ  4.615258E-08 XY  2.161947E-07 XZ -1.093817E-06 YZ -2.740412E-09

 TENSOR IN PRINCIPAL AXIS SYSTEM
 AA  1.349738E-06 BB -4.257606E-07 CC -9.239777E-07

 PRINCIPAL AXES
         X             Y             Z
 A  7.626699E-01  9.250954E-02 -6.401380E-01
 B  1.174429E-01  9.534585E-01  2.777123E-01
 C  6.360360E-01 -2.869825E-01  7.163095E-01

 ANGLES BETWEEN PRINCIPAL AXES AND ORIGINAL AXES (DEGREES)
         X             Y             Z
 A     40.299860     84.692004    129.802107
 B     83.255451     17.549185     73.876285
 C     50.503136    106.677388     44.249381


 POINT   ATOM  MASS NO  NUCLEAR G FACTOR
    3    3 O      17      -0.7575220

 TENSOR IN ORIGINAL CARTESIAN AXES
 XX -8.190774E-08 YY  1.377656E-06 ZZ -1.295748E-06 XY  4.752299E-07 XZ  5.763473E-07 YZ  1.910598E-07

 TENSOR IN PRINCIPAL AXIS SYSTEM
 AA -3.726564E-08 BB  1.563070E-06 CC -1.525804E-06

 PRINCIPAL AXES
         X             Y             Z
 A  8.733970E-01 -3.403751E-01  3.483137E-01
 B  3.158514E-01  9.402894E-01  1.268610E-01
 C -3.706960E-01 -7.846509E-04  9.287539E-01

 ANGLES BETWEEN PRINCIPAL AXES AND ORIGINAL AXES (DEGREES)
         X             Y             Z
 A     29.144174    109.899730     69.615790
 B     71.587780     19.899785     82.711760
 C    111.758551     90.044957     21.758602


 POINT   ATOM  MASS NO  NUCLEAR G FACTOR
    4    4 O      17      -0.7575220

 TENSOR IN ORIGINAL CARTESIAN AXES
 XX -3.406768E-07 YY -9.944629E-07 ZZ  1.335140E-06 XY -7.961408E-08 XZ -1.455068E-06 YZ -1.387699E-06

 TENSOR IN PRINCIPAL AXIS SYSTEM
 AA -5.564120E-07 BB -2.015438E-06 CC  2.571850E-06

 PRINCIPAL AXES
         X             Y             Z
 A  7.797391E-01 -6.074646E-01  1.516365E-01
 B  4.678847E-01  7.262812E-01  5.035867E-01
 C -4.160418E-01 -3.217178E-01  8.505333E-01

 ANGLES BETWEEN PRINCIPAL AXES AND ORIGINAL AXES (DEGREES)
         X             Y             Z
 A     38.763302    127.406402     81.278225
 B     62.102925     43.424467     59.762423
 C    114.584941    108.766845     31.730281


 POINT   ATOM  MASS NO  NUCLEAR G FACTOR
    5    5 O      17      -0.7575220

 TENSOR IN ORIGINAL CARTESIAN AXES
 XX  3.008528E-06 YY -7.767950E-07 ZZ -2.231733E-06 XY -1.360674E-06 XZ  1.265041E-06 YZ -8.057198E-07

 TENSOR IN PRINCIPAL AXIS SYSTEM
 AA  3.797803E-06 BB -1.123587E-06 CC -2.674216E-06

 PRINCIPAL AXES
         X             Y             Z
 A  9.195656E-01 -3.149096E-01  2.350127E-01
 B  3.679713E-01  8.999288E-01 -2.339345E-01
 C -1.378265E-01  3.015961E-01  9.434213E-01

 ANGLES BETWEEN PRINCIPAL AXES AND ORIGINAL AXES (DEGREES)
         X             Y             Z
 A     23.137335    108.355355     76.407627
 B     68.409444     25.851296    103.528824
 C     97.922094     72.446507     19.365714


 POINT   ATOM  MASS NO  NUCLEAR G FACTOR
    6    6 O      17      -0.7575220

 TENSOR IN ORIGINAL CARTESIAN AXES
 XX  6.825169E-07 YY  1.225113E-06 ZZ -1.907630E-06 XY -2.167279E-07 XZ -3.554979E-07 YZ -1.709453E-06

 TENSOR IN PRINCIPAL AXIS SYSTEM
 AA  7.303089E-07 BB  1.979715E-06 CC -2.710024E-06

 PRINCIPAL AXES
         X             Y             Z
 A  9.917258E-01 -8.408852E-03 -1.280985E-01
 B -4.357438E-02  9.165606E-01 -3.975147E-01
 C  1.207527E-01  3.998074E-01  9.086104E-01

 ANGLES BETWEEN PRINCIPAL AXES AND ORIGINAL AXES (DEGREES)
         X             Y             Z
 A      7.375656     90.481797     97.359728
 B     92.497419     23.571665    113.422901
 C     83.064454     66.433862     24.685982


 POINT   ATOM  MASS NO  NUCLEAR G FACTOR
    7    7 O      17      -0.7575220

 TENSOR IN ORIGINAL CARTESIAN AXES
 XX -5.448265E-06 YY  1.519448E-06 ZZ  3.928817E-06 XY -8.535698E-06 XZ  3.570584E-06 YZ  2.713409E-06

 TENSOR IN PRINCIPAL AXIS SYSTEM
 AA -1.241066E-05 BB  7.284840E-06 CC  5.125820E-06

 PRINCIPAL AXES
         X             Y             Z
 A  7.986793E-01  5.408188E-01 -2.638683E-01
 B -5.309164E-01  8.397115E-01  1.140714E-01
 C  2.832652E-01  4.898559E-02  9.577898E-01

 ANGLES BETWEEN PRINCIPAL AXES AND ORIGINAL AXES (DEGREES)
         X             Y             Z
 A     36.995834     57.260605    105.299717
 B    122.067396     32.890330     83.449935
 C     73.544823     87.192209     16.706522


 POINT   ATOM  MASS NO  NUCLEAR G FACTOR
    8    8 O      17      -0.7575220

 TENSOR IN ORIGINAL CARTESIAN AXES
 XX  2.708852E-07 YY  7.778383E-07 ZZ -1.048724E-06 XY -1.529162E-08 XZ -7.312075E-07 YZ -9.849085E-07

 TENSOR IN PRINCIPAL AXIS SYSTEM
 AA  4.146631E-07 BB  1.297690E-06 CC -1.712353E-06

 PRINCIPAL AXES
         X             Y             Z
 A  8.952806E-01 -4.122915E-01 -1.687851E-01
 B  3.031299E-01  8.413962E-01 -4.473977E-01
 C  3.264734E-01  3.493827E-01  8.782635E-01

 ANGLES BETWEEN PRINCIPAL AXES AND ORIGINAL AXES (DEGREES)
         X             Y             Z
 A     26.455507    114.348862     99.717192
 B     72.354308     32.712155    116.576848
 C     70.945133     69.550438     28.566401


 POINT   ATOM  MASS NO  NUCLEAR G FACTOR
    9    9 O      17      -0.7575220

 TENSOR IN ORIGINAL CARTESIAN AXES
 XX -2.727823E-07 YY  1.332229E-06 ZZ -1.059446E-06 XY  1.914842E-06 XZ -9.081224E-07 YZ -2.164611E-06

 TENSOR IN PRINCIPAL AXIS SYSTEM
 AA -1.358321E-06 BB  3.725290E-06 CC -2.366970E-06

 PRINCIPAL AXES
         X             Y             Z
 A  8.700358E-01 -3.123369E-01  3.814229E-01
 B  4.673546E-01  7.687939E-01 -4.365037E-01
 C -1.568994E-01  5.580336E-01  8.148504E-01

 ANGLES BETWEEN PRINCIPAL AXES AND ORIGINAL AXES (DEGREES)
         X             Y             Z
 A     29.537204    108.200122     67.578154
 B     62.137283     39.754290    115.881017
 C     99.026969     56.080083     35.427432


 POINT   ATOM  MASS NO  NUCLEAR G FACTOR
   10   10 O      17      -0.7575220

 TENSOR IN ORIGINAL CARTESIAN AXES
 XX  2.924468E-06 YY -1.463230E-06 ZZ -1.461238E-06 XY  8.960530E-07 XZ  1.841520E-06 YZ  2.864434E-07

 TENSOR IN PRINCIPAL AXIS SYSTEM
 AA  3.764176E-06 BB -1.629545E-06 CC -2.134631E-06

 PRINCIPAL AXES
         X             Y             Z
 A  9.251927E-01  1.769904E-01  3.356976E-01
 B -1.408724E-01  9.815536E-01 -1.292574E-01
 C -3.523825E-01  7.229746E-02  9.330593E-01

 ANGLES BETWEEN PRINCIPAL AXES AND ORIGINAL AXES (DEGREES)
         X             Y             Z
 A     22.302572     79.805493     70.385034
 B     98.098334     11.022072     97.426682
 C    110.633111     85.854044     21.083163


 POINT   ATOM  MASS NO  NUCLEAR G FACTOR
   11   11 O      17      -0.7575220

 TENSOR IN ORIGINAL CARTESIAN AXES
 XX -3.180850E-08 YY  1.144036E-06 ZZ -1.112228E-06 XY -8.679038E-07 XZ  8.934704E-07 YZ -1.536409E-06

 TENSOR IN PRINCIPAL AXIS SYSTEM
 AA -4.899151E-07 BB  2.482261E-06 CC -1.992346E-06

 PRINCIPAL AXES
         X             Y             Z
 A  8.696759E-01  4.925482E-01  3.256020E-02
 B -4.292078E-01  7.871207E-01 -4.429692E-01
 C -2.438125E-01  3.712645E-01  8.959454E-01

 ANGLES BETWEEN PRINCIPAL AXES AND ORIGINAL AXES (DEGREES)
         X             Y             Z
 A     29.579004     60.491796     88.134108
 B    115.417297     38.082758    116.293480
 C    104.111665     68.206376     26.369878


 POINT   ATOM  MASS NO  NUCLEAR G FACTOR
   12   12 O      17      -0.7575220

 TENSOR IN ORIGINAL CARTESIAN AXES
 XX  4.055241E-06 YY -6.779783E-06 ZZ  2.724543E-06 XY  2.147011E-06 XZ -1.047143E-05 YZ -2.444839E-06

 TENSOR IN PRINCIPAL AXIS SYSTEM
 AA  1.437828E-05 BB -7.510829E-06 CC -6.867446E-06

 PRINCIPAL AXES
         X             Y             Z
 A  7.192699E-01  1.513370E-01 -6.780472E-01
 B  3.268876E-01  7.874742E-01  5.225216E-01
 C  6.130215E-01 -5.974793E-01  5.169363E-01

 ANGLES BETWEEN PRINCIPAL AXES AND ORIGINAL AXES (DEGREES)
         X             Y             Z
 A     44.005769     81.295586    132.691232
 B     70.920029     38.049903     58.498450
 C     52.191699    126.689575     58.873032


 POINT   ATOM  MASS NO  NUCLEAR G FACTOR
   13   13 O      17      -0.7575220

 TENSOR IN ORIGINAL CARTESIAN AXES
 XX  6.470517E-08 YY -8.284459E-07 ZZ  7.637407E-07 XY -5.838058E-07 XZ  1.806611E-06 YZ -1.203818E-06

 TENSOR IN PRINCIPAL AXIS SYSTEM
 AA -1.669176E-06 BB -1.063078E-06 CC  2.732254E-06

 PRINCIPAL AXES
         X             Y             Z
 A  4.759961E-01 -5.946321E-01 -6.479509E-01
 B  6.637509E-01  7.262477E-01 -1.788828E-01
 C  5.769423E-01 -3.449305E-01  7.403786E-01

 ANGLES BETWEEN PRINCIPAL AXES AND ORIGINAL AXES (DEGREES)
         X             Y             Z
 A     61.575773    126.486406    130.387289
 B     48.413429     43.427263    100.304692
 C     54.764235    110.177555     42.236320


 POINT   ATOM  MASS NO  NUCLEAR G FACTOR
   14   14 O      17      -0.7575220

 TENSOR IN ORIGINAL CARTESIAN AXES
 XX -5.083484E-06 YY -3.869234E-06 ZZ  8.952717E-06 XY  1.956794E-07 XZ -4.107907E-07 YZ -4.440523E-06

 TENSOR IN PRINCIPAL AXIS SYSTEM
 AA -5.074073E-06 BB -5.279457E-06 CC  1.035353E-05

 PRINCIPAL AXES
         X             Y             Z
 A  9.430936E-01  3.080932E-01  1.251118E-01
 B -3.312456E-01  9.034299E-01  2.721961E-01
 C -2.916796E-02 -2.981491E-01  9.540735E-01

 ANGLES BETWEEN PRINCIPAL AXES AND ORIGINAL AXES (DEGREES)
         X             Y             Z
 A     19.422244     72.055642     82.812788
 B    109.344394     25.387355     74.205010
 C     91.671438    107.346470     17.431928


 POINT   ATOM  MASS NO  NUCLEAR G FACTOR
   15   15 O      17      -0.7575220

 TENSOR IN ORIGINAL CARTESIAN AXES
 XX  2.941509E-07 YY -3.464367E-07 ZZ  5.228580E-08 XY  2.577687E-07 XZ -3.888378E-07 YZ  7.878576E-09

 TENSOR IN PRINCIPAL AXIS SYSTEM
 AA  6.240959E-07 BB -4.856986E-07 CC -1.383973E-07

 PRINCIPAL AXES
         X             Y             Z
 A  8.146301E-01  2.134623E-01 -5.392696E-01
 B -4.386538E-01  8.350408E-01 -3.320990E-01
 C  3.794215E-01  5.070905E-01  7.738854E-01

 ANGLES BETWEEN PRINCIPAL AXES AND ORIGINAL AXES (DEGREES)
         X             Y             Z
 A     35.449198     77.674671    122.633930
 B    116.018021     33.379917    109.396226
 C     67.702148     59.529777     39.295914


 POINT   ATOM  MASS NO  NUCLEAR G FACTOR
   16   16 O      17      -0.7575220

 TENSOR IN ORIGINAL CARTESIAN AXES
 XX -5.979245E-08 YY -4.832186E-08 ZZ  1.081143E-07 XY -5.788000E-08 XZ -2.399084E-07 YZ -3.512076E-07

 TENSOR IN PRINCIPAL AXIS SYSTEM
 AA -4.383047E-07 BB -1.981078E-09 CC  4.402858E-07

 PRINCIPAL AXES
         X             Y             Z
 A  4.692324E-01  6.356075E-01  6.130449E-01
 B -8.246499E-01  5.637090E-01  4.674175E-02
 C -3.158695E-01 -5.274802E-01  7.886641E-01

 ANGLES BETWEEN PRINCIPAL AXES AND ORIGINAL AXES (DEGREES)
         X             Y             Z
 A     62.015519     50.534946     52.190001
 B    145.553009     55.687311     87.320919
 C    108.413315    121.835358     37.939153


 POINT   ATOM  MASS NO  NUCLEAR G FACTOR
   17   17 O      17      -0.7575220

 TENSOR IN ORIGINAL CARTESIAN AXES
 XX -6.916072E-07 YY  1.410248E-06 ZZ -7.186410E-07 XY -5.049189E-08 XZ -4.483275E-08 YZ  1.243154E-06

 TENSOR IN PRINCIPAL AXIS SYSTEM
 AA -6.925246E-07 BB  1.983968E-06 CC -1.291444E-06

 PRINCIPAL AXES
         X             Y             Z
 A  9.991719E-01  3.561536E-02 -1.967177E-02
 B -2.414152E-02  9.081399E-01  4.179701E-01
 C  3.275088E-02 -4.171491E-01  9.082478E-01

 ANGLES BETWEEN PRINCIPAL AXES AND ORIGINAL AXES (DEGREES)
         X             Y             Z
 A      2.331837     87.958958     91.127182
 B     91.383341     24.750441     65.293501
 C     88.123177    114.654729     24.735682


 POINT   ATOM  MASS NO  NUCLEAR G FACTOR
   18   18 O      17      -0.7575220

 TENSOR IN ORIGINAL CARTESIAN AXES
 XX  1.780049E-06 YY  1.995798E-06 ZZ -3.775847E-06 XY -5.912852E-06 XZ -3.637594E-06 YZ -1.020177E-05

 TENSOR IN PRINCIPAL AXIS SYSTEM
 AA -1.416110E-05 BB  1.062624E-05 CC  3.534866E-06

 PRINCIPAL AXES
         X             Y             Z
 A  3.811694E-01  5.892903E-01  7.123530E-01
 B -3.391656E-01  8.059325E-01 -4.852211E-01
 C -8.600445E-01 -5.665423E-02  5.070638E-01

 ANGLES BETWEEN PRINCIPAL AXES AND ORIGINAL AXES (DEGREES)
         X             Y             Z
 A     67.593863     53.893336     44.573314
 B    109.826047     36.299591    119.026956
 C    149.321582     93.247787     59.531550


 POINT   ATOM  MASS NO  NUCLEAR G FACTOR
   19   19 O      17      -0.7575220

 TENSOR IN ORIGINAL CARTESIAN AXES
 XX -1.837123E-06 YY -8.188779E-07 ZZ  2.656001E-06 XY  2.660488E-06 XZ  4.547589E-06 YZ  5.580745E-06

 TENSOR IN PRINCIPAL AXIS SYSTEM
 AA -4.035852E-06 BB -5.209616E-06 CC  9.245468E-06

 PRINCIPAL AXES
         X             Y             Z
 A  7.854393E-01 -6.186826E-01 -1.780485E-02
 B  4.471021E-01  5.870346E-01 -6.749001E-01
 C  4.280010E-01  5.221325E-01  7.376943E-01

 ANGLES BETWEEN PRINCIPAL AXES AND ORIGINAL AXES (DEGREES)
         X             Y             Z
 A     38.238675    128.219992     91.020196
 B     63.442090     54.053146    132.446391
 C     64.659237     58.524599     42.464627


 POINT   ATOM  MASS NO  NUCLEAR G FACTOR
   20   20 O      17      -0.7575220

 TENSOR IN ORIGINAL CARTESIAN AXES
 XX  1.007583E-05 YY  1.058683E-05 ZZ -2.066266E-05 XY  1.196639E-05 XZ -1.487015E-05 YZ  1.395270E-05

 TENSOR IN PRINCIPAL AXIS SYSTEM
 AA  1.134154E-05 BB  2.230771E-05 CC -3.364925E-05

 PRINCIPAL AXES
         X             Y             Z
 A  5.878302E-01 -6.049821E-01 -5.370775E-01
 B  7.095896E-01  7.044142E-01 -1.683147E-02
 C  3.885078E-01 -3.712106E-01  8.433649E-01

 ANGLES BETWEEN PRINCIPAL AXES AND ORIGINAL AXES (DEGREES)
         X             Y             Z
 A     53.996817    127.227556    122.484915
 B     44.798468     45.217765     90.964418
 C     67.138319    111.790296     32.502827


 POINT   ATOM  MASS NO  NUCLEAR G FACTOR
   21   21 O      17      -0.7575220

 TENSOR IN ORIGINAL CARTESIAN AXES
 XX  1.170466E-05 YY -1.726984E-05 ZZ  5.565184E-06 XY -4.843173E-06 XZ  2.678946E-05 YZ -4.819824E-06

 TENSOR IN PRINCIPAL AXIS SYSTEM
 AA  3.646596E-05 BB -1.785040E-05 CC -1.861556E-05

 PRINCIPAL AXES
         X             Y             Z
 A  7.397566E-01 -1.259602E-01  6.609797E-01
 B  4.815407E-01  7.852180E-01 -3.892959E-01
 C -4.699773E-01  6.062728E-01  6.415252E-01

 ANGLES BETWEEN PRINCIPAL AXES AND ORIGINAL AXES (DEGREES)
         X             Y             Z
 A     42.289312     97.236212     48.625367
 B     61.213925     38.259155    112.910693
 C    118.032826     52.679512     50.094356


 POINT   ATOM  MASS NO  NUCLEAR G FACTOR
   22   22 O      17      -0.7575220

 TENSOR IN ORIGINAL CARTESIAN AXES
 XX -4.025539E-06 YY  2.955981E-06 ZZ  1.069558E-06 XY -1.105284E-06 XZ -5.840189E-06 YZ -1.822828E-06

 TENSOR IN PRINCIPAL AXIS SYSTEM
 AA -8.183615E-06 BB  2.880665E-06 CC  5.302950E-06

 PRINCIPAL AXES
         X             Y             Z
 A  8.176220E-01  1.710844E-01  5.497494E-01
 B -3.594136E-01  8.976038E-01  2.552043E-01
 C -4.497957E-01 -4.062481E-01  7.953907E-01

 ANGLES BETWEEN PRINCIPAL AXES AND ORIGINAL AXES (DEGREES)
         X             Y             Z
 A     35.152552     80.149125     56.650175
 B    111.064186     26.155132     75.214309
 C    116.730578    113.969360     37.307828


 POINT   ATOM  MASS NO  NUCLEAR G FACTOR
   23   23 O      17      -0.7575220

 TENSOR IN ORIGINAL CARTESIAN AXES
 XX -2.066994E-05 YY -2.929879E-06 ZZ  2.359982E-05 XY  1.953406E-05 XZ  5.324675E-06 YZ -1.780371E-05

 TENSOR IN PRINCIPAL AXIS SYSTEM
 AA -3.673856E-05 BB  3.843319E-06 CC  3.289524E-05

 PRINCIPAL AXES
         X             Y             Z
 A  7.808248E-01 -5.771411E-01 -2.392088E-01
 B  6.183730E-01  6.593918E-01  4.275714E-01
 C -8.903669E-02 -4.817786E-01  8.717579E-01

 ANGLES BETWEEN PRINCIPAL AXES AND ORIGINAL AXES (DEGREES)
         X             Y             Z
 A     38.663848    125.249712    103.839848
 B     51.802581     48.746495     64.686467
 C     95.108191    118.801629     29.336433


 POINT   ATOM  MASS NO  NUCLEAR G FACTOR
   24   24 O      17      -0.7575220

 TENSOR IN ORIGINAL CARTESIAN AXES
 XX  2.408385E-06 YY -8.135389E-06 ZZ  5.727004E-06 XY -5.086836E-06 XZ -7.832970E-06 YZ  8.722746E-06

 TENSOR IN PRINCIPAL AXIS SYSTEM
 AA -3.718051E-06 BB -1.247071E-05 CC  1.618876E-05

 PRINCIPAL AXES
         X             Y             Z
 A  8.222154E-01  1.410262E-01  5.514285E-01
 B  1.062463E-01  9.137615E-01 -3.921118E-01
 C -5.591721E-01  3.809876E-01  7.363253E-01

 ANGLES BETWEEN PRINCIPAL AXES AND ORIGINAL AXES (DEGREES)
         X             Y             Z
 A     34.692813     81.892768     56.534932
 B     83.901026     23.969550    113.085967
 C    123.998566     67.605129     42.580679


 POINT   ATOM  MASS NO  NUCLEAR G FACTOR
   25   25 O      17      -0.7575220

 TENSOR IN ORIGINAL CARTESIAN AXES
 XX -1.505781E-05 YY  1.535243E-05 ZZ -2.946230E-07 XY  2.067461E-05 XZ  1.877817E-05 YZ -8.741870E-06

 TENSOR IN PRINCIPAL AXIS SYSTEM
 AA -3.714821E-05 BB  2.583689E-05 CC  1.131132E-05

 PRINCIPAL AXES
         X             Y             Z
 A  7.803303E-01 -3.888566E-01 -4.897706E-01
 B  4.646827E-01  8.846626E-01  3.797497E-02
 C  4.185149E-01 -2.572209E-01  8.710239E-01

 ANGLES BETWEEN PRINCIPAL AXES AND ORIGINAL AXES (DEGREES)
         X             Y             Z
 A     38.709177    112.883374    119.325504
 B     62.310314     27.789970     87.823671
 C     65.259137    104.905225     29.422155


 POINT   ATOM  MASS NO  NUCLEAR G FACTOR
   26   26 O      17      -0.7575220

 TENSOR IN ORIGINAL CARTESIAN AXES
 XX -5.332666E-07 YY  1.666965E-06 ZZ -1.133698E-06 XY -4.472228E-06 XZ -3.128117E-06 YZ -3.012593E-06

 TENSOR IN PRINCIPAL AXIS SYSTEM
 AA -7.149637E-06 BB  5.217328E-06 CC  1.932309E-06

 PRINCIPAL AXES
         X             Y             Z
 A  6.260403E-01  5.172579E-01  5.835390E-01
 B -5.759158E-01  8.112191E-01 -1.012152E-01
 C -5.257324E-01 -2.727046E-01  8.057529E-01

 ANGLES BETWEEN PRINCIPAL AXES AND ORIGINAL AXES (DEGREES)
         X             Y             Z
 A     51.241417     58.851501     54.300155
 B    125.163793     35.784786     95.809151
 C    121.717559    105.825268     36.316972


 POINT   ATOM  MASS NO  NUCLEAR G FACTOR
   27   27 O      17      -0.7575220

 TENSOR IN ORIGINAL CARTESIAN AXES
 XX  2.031811E-04 YY -2.582068E-04 ZZ  5.502569E-05 XY  1.014122E-04 XZ  3.865847E-04 YZ  7.144972E-05

 TENSOR IN PRINCIPAL AXIS SYSTEM
 AA  5.418462E-04 BB -2.823199E-04 CC -2.595263E-04

 PRINCIPAL AXES
         X             Y             Z
 A  7.628764E-01  1.528045E-01  6.282279E-01
 B -4.015484E-01  8.735303E-01  2.751429E-01
 C -5.067331E-01 -4.621640E-01  7.277541E-01

 ANGLES BETWEEN PRINCIPAL AXES AND ORIGINAL AXES (DEGREES)
         X             Y             Z
 A     40.281563     81.210512     51.080495
 B    113.675014     29.128484     74.029472
 C    120.446467    117.526832     43.301558


 POINT   ATOM  MASS NO  NUCLEAR G FACTOR
   28   28 O      17      -0.7575220

 TENSOR IN ORIGINAL CARTESIAN AXES
 XX  6.362616E-05 YY -3.725320E-05 ZZ -2.637296E-05 XY  3.755120E-06 XZ -3.628657E-05 YZ -2.483222E-06

 TENSOR IN PRINCIPAL AXIS SYSTEM
 AA  7.660138E-05 BB -3.689905E-05 CC -3.970233E-05

 PRINCIPAL AXES
         X             Y             Z
 A  9.421715E-01  3.833582E-02 -3.329312E-01
 B -1.763441E-01  9.014933E-01 -3.952375E-01
 C  2.849835E-01  4.310920E-01  8.561216E-01

 ANGLES BETWEEN PRINCIPAL AXES AND ORIGINAL AXES (DEGREES)
         X             Y             Z
 A     19.580505     87.802981    109.446783
 B    100.156884     25.644952    113.280787
 C     73.442141     64.463121     31.116136


 POINT   ATOM  MASS NO  NUCLEAR G FACTOR
   29   29 O      17      -0.7575220

 TENSOR IN ORIGINAL CARTESIAN AXES
 XX  1.083198E-07 YY  1.372444E-06 ZZ -1.480764E-06 XY -4.845927E-08 XZ  1.766005E-07 YZ -1.801227E-07

 TENSOR IN PRINCIPAL AXIS SYSTEM
 AA  1.240680E-07 BB  1.386558E-06 CC -1.510626E-06

 PRINCIPAL AXES
         X             Y             Z
 A  9.929446E-01  5.360853E-02  1.057689E-01
 B -4.682881E-02  9.967482E-01 -6.557491E-02
 C -1.089403E-01  6.015923E-02  9.922262E-01

 ANGLES BETWEEN PRINCIPAL AXES AND ORIGINAL AXES (DEGREES)
         X             Y             Z
 A      6.810088     86.926985     83.928533
 B     92.684075      4.621859     93.759864
 C     96.254233     86.551048      7.148838


 POINT   ATOM  MASS NO  NUCLEAR G FACTOR
   30   30 O      17      -0.7575220

 TENSOR IN ORIGINAL CARTESIAN AXES
 XX  1.588877E-06 YY -5.733138E-06 ZZ  4.144261E-06 XY  7.887972E-06 XZ  3.491624E-06 YZ -6.993517E-06

 TENSOR IN PRINCIPAL AXIS SYSTEM
 AA  6.183488E-06 BB -1.408849E-05 CC  7.904998E-06

 PRINCIPAL AXES
         X             Y             Z
 A  8.397312E-01  2.843631E-01  4.625897E-01
 B -4.816502E-01  7.834344E-01  3.927386E-01
 C -2.507283E-01 -5.526012E-01  7.948378E-01

 ANGLES BETWEEN PRINCIPAL AXES AND ORIGINAL AXES (DEGREES)
         X             Y             Z
 A     32.888258     73.479220     62.445658
 B    118.793232     38.423886     66.874989
 C    104.520615    123.545652     37.360059


 POINT   ATOM  MASS NO  NUCLEAR G FACTOR
   31   31 O      17      -0.7575220

 TENSOR IN ORIGINAL CARTESIAN AXES
 XX  3.470456E-06 YY -1.843275E-06 ZZ -1.627182E-06 XY  6.683756E-07 XZ -3.203907E-07 YZ -4.875214E-07

 TENSOR IN PRINCIPAL AXIS SYSTEM
 AA  3.580846E-06 BB -2.254035E-06 CC -1.326810E-06

 PRINCIPAL AXES
         X             Y             Z
 A  9.890392E-01  1.284215E-01 -7.286579E-02
 B -6.049794E-02  8.026236E-01  5.934099E-01
 C  1.346904E-01 -5.824974E-01  8.015954E-01

 ANGLES BETWEEN PRINCIPAL AXES AND ORIGINAL AXES (DEGREES)
         X             Y             Z
 A      8.490957     82.621615     94.178606
 B     93.468394     36.618625     53.600639
 C     82.259283    125.626390     36.717273


 POINT   ATOM  MASS NO  NUCLEAR G FACTOR
   32   32 O      17      -0.7575220

 TENSOR IN ORIGINAL CARTESIAN AXES
 XX  1.711764E-04 YY  1.949312E-06 ZZ -1.731257E-04 XY  2.372369E-04 XZ  1.850804E-05 YZ  2.641316E-06

 TENSOR IN PRINCIPAL AXIS SYSTEM
 AA  3.389788E-04 BB -1.600170E-04 CC -1.789619E-04

 PRINCIPAL AXES
         X             Y             Z
 A  8.171768E-01  5.754700E-01  3.250184E-02
 B -4.746912E-01  7.039112E-01 -5.283723E-01
 C -3.269408E-01  4.163453E-01  8.483904E-01

 ANGLES BETWEEN PRINCIPAL AXES AND ORIGINAL AXES (DEGREES)
         X             Y             Z
 A     35.196828     54.867449     88.137453
 B    118.339247     45.258355    121.895546
 C    109.083201     65.395936     31.962968


 POINT   ATOM  MASS NO  NUCLEAR G FACTOR
   33   33 O      17      -0.7575220

 TENSOR IN ORIGINAL CARTESIAN AXES
 XX  3.468567E-06 YY -6.027880E-06 ZZ  2.559313E-06 XY  2.776619E-06 XZ  1.122467E-07 YZ  4.109441E-07

 TENSOR IN PRINCIPAL AXIS SYSTEM
 AA  4.248587E-06 BB -6.794561E-06 CC  2.545974E-06

 PRINCIPAL AXES
         X             Y             Z
 A  9.563328E-01  2.634540E-01  1.265686E-01
 B -2.605530E-01  9.646612E-01 -3.925466E-02
 C -1.324376E-01  4.562679E-03  9.911808E-01

 ANGLES BETWEEN PRINCIPAL AXES AND ORIGINAL AXES (DEGREES)
         X             Y             Z
 A     16.994507     74.724892     82.728650
 B    105.102880     15.277454     92.249704
 C     97.610476     89.738577      7.615018


 POINT   ATOM  MASS NO  NUCLEAR G FACTOR
   34   34 O      17      -0.7575220

 TENSOR IN ORIGINAL CARTESIAN AXES
 XX  1.073757E-05 YY  2.275955E-05 ZZ -3.349712E-05 XY  9.987857E-07 XZ -2.743289E-05 YZ -6.662693E-07

 TENSOR IN PRINCIPAL AXIS SYSTEM
 AA  2.461857E-05 BB  2.199997E-05 CC -4.661854E-05

 PRINCIPAL AXES
         X             Y             Z
 A  7.594966E-01  5.386716E-01 -3.646886E-01
 B -4.868504E-01  8.425122E-01  2.305426E-01
 C  4.314414E-01  2.452494E-03  9.021376E-01

 ANGLES BETWEEN PRINCIPAL AXES AND ORIGINAL AXES (DEGREES)
         X             Y             Z
 A     40.580162     57.406743    111.388422
 B    119.133774     32.593637     76.670983
 C     64.440932     89.859482     25.559511


 POINT   ATOM  MASS NO  NUCLEAR G FACTOR
   35   35 O      17      -0.7575220

 TENSOR IN ORIGINAL CARTESIAN AXES
 XX -3.020667E-06 YY -2.753820E-06 ZZ  5.774487E-06 XY -4.456100E-06 XZ  3.331178E-07 YZ  1.177426E-06

 TENSOR IN PRINCIPAL AXIS SYSTEM
 AA -7.430545E-06 BB  1.485774E-06 CC  5.944771E-06

 PRINCIPAL AXES
         X             Y             Z
 A  7.115050E-01  6.980321E-01 -8.069565E-02
 B -7.015683E-01  6.992181E-01 -1.374623E-01
 C -3.952925E-02  1.544186E-01  9.872144E-01

 ANGLES BETWEEN PRINCIPAL AXES AND ORIGINAL AXES (DEGREES)
         X             Y             Z
 A     44.642503     45.730665     94.628553
 B    134.552966     45.635691     97.901028
 C     92.265450     81.116920      9.171947


 POINT   ATOM  MASS NO  NUCLEAR G FACTOR
   36   36 O      17      -0.7575220

 TENSOR IN ORIGINAL CARTESIAN AXES
 XX -2.416274E-06 YY  2.471224E-05 ZZ -2.229597E-05 XY -6.632855E-07 XZ  1.744140E-05 YZ  2.630214E-06

 TENSOR IN PRINCIPAL AXIS SYSTEM
 AA  7.686279E-06 BB  2.486354E-05 CC -3.254982E-05

 PRINCIPAL AXES
         X             Y             Z
 A  8.652193E-01 -4.345839E-02  4.995067E-01
 B  1.481496E-02  9.980175E-01  6.116844E-02
 C -5.011747E-01 -4.552394E-02  8.641478E-01

 ANGLES BETWEEN PRINCIPAL AXES AND ORIGINAL AXES (DEGREES)
         X             Y             Z
 A     30.092245     92.490767     60.032631
 B     89.151134      3.608407     86.493118
 C    120.077749     92.609231     30.214459


 POINT   ATOM  MASS NO  NUCLEAR G FACTOR
   37   37 O      17      -0.7575220

 TENSOR IN ORIGINAL CARTESIAN AXES
 XX  3.704853E-05 YY -1.090362E-04 ZZ  7.198771E-05 XY  1.195956E-04 XZ -2.074422E-05 YZ  2.956403E-05

 TENSOR IN PRINCIPAL AXIS SYSTEM
 AA  1.046122E-04 BB -1.812307E-04 CC  7.661846E-05

 PRINCIPAL AXES
         X             Y             Z
 A  8.728371E-01  4.708371E-01 -1.283268E-01
 B -4.859756E-01  8.626012E-01 -1.405236E-01
 C  4.453116E-02  1.850179E-01  9.817257E-01

 ANGLES BETWEEN PRINCIPAL AXES AND ORIGINAL AXES (DEGREES)
         X             Y             Z
 A     29.209975     61.911352     97.372917
 B    119.076413     30.390090     98.078145
 C     87.447708     79.337823     10.970379


 POINT   ATOM  MASS NO  NUCLEAR G FACTOR
   38   38 O      17      -0.7575220

 TENSOR IN ORIGINAL CARTESIAN AXES
 XX  1.339719E-06 YY -5.616741E-08 ZZ -1.283552E-06 XY -9.520880E-07 XZ -1.872272E-06 YZ -7.248860E-07

 TENSOR IN PRINCIPAL AXIS SYSTEM
 AA  2.430338E-06 BB  2.782051E-07 CC -2.708544E-06

 PRINCIPAL AXES
         X             Y             Z
 A  8.874365E-01 -2.206597E-01 -4.046798E-01
 B  2.119877E-02  8.965736E-01 -4.423871E-01
 C  4.604423E-01  3.840117E-01  8.003299E-01

 ANGLES BETWEEN PRINCIPAL AXES AND ORIGINAL AXES (DEGREES)
         X             Y             Z
 A     27.447137    102.747786    113.871066
 B     88.785309     26.288722    116.256287
 C     62.584348     67.417599     36.838387


 POINT   ATOM  MASS NO  NUCLEAR G FACTOR
   39   39 O      17      -0.7575220

 TENSOR IN ORIGINAL CARTESIAN AXES
 XX -6.989950E-05 YY  4.841497E-05 ZZ  2.148454E-05 XY -4.237902E-05 XZ  8.783296E-05 YZ  1.840719E-05

 TENSOR IN PRINCIPAL AXIS SYSTEM
 AA -1.346725E-04 BB  5.770900E-05 CC  7.696354E-05

 PRINCIPAL AXES
         X             Y             Z
 A  8.329997E-01  2.427960E-01 -4.971534E-01
 B -2.410918E-02  9.136429E-01  4.058021E-01
 C  5.527479E-01 -3.260471E-01  7.669179E-01

 ANGLES BETWEEN PRINCIPAL AXES AND ORIGINAL AXES (DEGREES)
         X             Y             Z
 A     33.591872     75.948379    119.811852
 B     91.381488     23.986264     66.058601
 C     56.444268    109.029023     39.922077


 POINT   ATOM  MASS NO  NUCLEAR G FACTOR
   40   40 O      17      -0.7575220

 TENSOR IN ORIGINAL CARTESIAN AXES
 XX -1.901319E-06 YY  2.347373E-06 ZZ -4.460544E-07 XY -3.833273E-06 XZ  2.952902E-06 YZ -1.436888E-06

 TENSOR IN PRINCIPAL AXIS SYSTEM
 AA -5.025860E-06 BB  5.858953E-06 CC -8.330935E-07

 PRINCIPAL AXES
         X             Y             Z
 A  8.336618E-01  3.497237E-01 -4.274358E-01
 B -5.246874E-01  7.430953E-01 -4.153462E-01
 C  1.723692E-01  5.705284E-01  8.029858E-01

 ANGLES BETWEEN PRINCIPAL AXES AND ORIGINAL AXES (DEGREES)
         X             Y             Z
 A     33.523249     69.529586    115.304940
 B    121.647203     42.004238    114.541119
 C     80.074404     55.212917     36.583822


 POINT   ATOM  MASS NO  NUCLEAR G FACTOR
   41   41 O      17      -0.7575220

 TENSOR IN ORIGINAL CARTESIAN AXES
 XX -2.564825E-06 YY  2.798050E-06 ZZ -2.332255E-07 XY -1.148861E-06 XZ -2.046684E-06 YZ -8.271112E-07

 TENSOR IN PRINCIPAL AXIS SYSTEM
 AA -4.044678E-06 BB  3.096654E-06 CC  9.480241E-07

 PRINCIPAL AXES
         X             Y             Z
 A  8.449309E-01  2.018718E-01  4.953177E-01
 B -1.423724E-01  9.775171E-01 -1.555330E-01
 C -5.155792E-01  6.089502E-02  8.546753E-01

 ANGLES BETWEEN PRINCIPAL AXES AND ORIGINAL AXES (DEGREES)
         X             Y             Z
 A     32.335470     78.353564     60.309298
 B     98.185152     12.172543     98.947708
 C    121.036178     86.508812     31.276118


 POINT   ATOM  MASS NO  NUCLEAR G FACTOR
   42   42 O      17      -0.7575220

 TENSOR IN ORIGINAL CARTESIAN AXES
 XX -1.315058E-05 YY -2.951943E-06 ZZ  1.610253E-05 XY -2.382966E-05 XZ -5.077304E-06 YZ -6.172658E-06

 TENSOR IN PRINCIPAL AXIS SYSTEM
 AA -3.365366E-05 BB  1.516001E-05 CC  1.849365E-05

 PRINCIPAL AXES
         X             Y             Z
 A  7.649505E-01  6.250124E-01  1.555962E-01
 B -5.823297E-01  5.678950E-01  5.817108E-01
 C  2.752141E-01 -5.355883E-01  7.983749E-01

 ANGLES BETWEEN PRINCIPAL AXES AND ORIGINAL AXES (DEGREES)
         X             Y             Z
 A     40.097407     51.316904     81.048622
 B    125.614568     55.396432     54.429042
 C     74.025227    122.383815     37.024809


 POINT   ATOM  MASS NO  NUCLEAR G FACTOR
   43   43 O      17      -0.7575220

 TENSOR IN ORIGINAL CARTESIAN AXES
 XX  4.643671E-05 YY  2.641965E-07 ZZ -4.670091E-05 XY -6.246864E-07 XZ  6.018622E-06 YZ  6.718416E-05

 TENSOR IN PRINCIPAL AXIS SYSTEM
 AA  4.424823E-05 BB  5.033692E-05 CC -9.458515E-05

 PRINCIPAL AXES
         X             Y             Z
 A  7.793260E-01 -5.275654E-01 -3.381209E-01
 B  6.255035E-01  6.227859E-01  4.699821E-01
 C -3.736936E-02 -5.777651E-01  8.153472E-01

 ANGLES BETWEEN PRINCIPAL AXES AND ORIGINAL AXES (DEGREES)
         X             Y             Z
 A     38.801098    121.841108    109.762433
 B     51.280850     51.480139     61.966866
 C     92.141605    125.293502     35.378293


 POINT   ATOM  MASS NO  NUCLEAR G FACTOR
   44   44 O      17      -0.7575220

 TENSOR IN ORIGINAL CARTESIAN AXES
 XX  3.411248E-06 YY -1.022639E-07 ZZ -3.308984E-06 XY -4.207420E-06 XZ -3.645183E-06 YZ  2.931097E-06

 TENSOR IN PRINCIPAL AXIS SYSTEM
 AA  8.116203E-06 BB -2.843730E-06 CC -5.272474E-06

 PRINCIPAL AXES
         X             Y             Z
 A  7.626004E-01 -5.252228E-01 -3.776000E-01
 B  6.087637E-01  7.801050E-01  1.443711E-01
 C  2.187407E-01 -3.399666E-01  9.146449E-01

 ANGLES BETWEEN PRINCIPAL AXES AND ORIGINAL AXES (DEGREES)
         X             Y             Z
 A     40.306021    121.683241    112.185099
 B     52.499837     38.729812     81.699140
 C     77.364923    109.874838     23.844655


 POINT   ATOM  MASS NO  NUCLEAR G FACTOR
   45   45 O      17      -0.7575220

 TENSOR IN ORIGINAL CARTESIAN AXES
 XX -6.639421E-06 YY  1.864958E-06 ZZ  4.774463E-06 XY  1.370590E-06 XZ  5.604941E-08 YZ -6.475054E-07

 TENSOR IN PRINCIPAL AXIS SYSTEM
 AA -6.856950E-06 BB  1.940074E-06 CC  4.916876E-06

 PRINCIPAL AXES
         X             Y             Z
 A  9.876340E-01 -1.561989E-01 -1.345474E-02
 B  1.553693E-01  9.636768E-01  2.172267E-01
 C -2.096455E-02 -2.166309E-01  9.760285E-01

 ANGLES BETWEEN PRINCIPAL AXES AND ORIGINAL AXES (DEGREES)
         X             Y             Z
 A      9.019889     98.986335     90.770923
 B     81.061786     15.490062     77.453805
 C     91.201268    102.511226     12.570631


 POINT   ATOM  MASS NO  NUCLEAR G FACTOR
   46   46 O      17      -0.7575220

 TENSOR IN ORIGINAL CARTESIAN AXES
 XX  2.000795E-05 YY -1.223648E-06 ZZ -1.878430E-05 XY  2.310261E-05 XZ  7.494437E-06 YZ  5.649578E-06

 TENSOR IN PRINCIPAL AXIS SYSTEM
 AA  3.640421E-05 BB -1.592231E-05 CC -2.048190E-05

 PRINCIPAL AXES
         X             Y             Z
 A  8.288035E-01  5.339712E-01  1.672110E-01
 B -5.568624E-01  8.163451E-01  1.532478E-01
 C -5.467198E-02 -2.201259E-01  9.739382E-01

 ANGLES BETWEEN PRINCIPAL AXES AND ORIGINAL AXES (DEGREES)
         X             Y             Z
 A     34.023976     57.725833     80.374299
 B    123.839088     35.279417     81.184810
 C     93.134036    102.716426     13.109549


 POINT   ATOM  MASS NO  NUCLEAR G FACTOR
   47   47 O      17      -0.7575220

 TENSOR IN ORIGINAL CARTESIAN AXES
 XX  2.268001E-06 YY -6.665459E-07 ZZ -1.601455E-06 XY  4.799590E-07 XZ -8.321092E-07 YZ -1.980266E-06

 TENSOR IN PRINCIPAL AXIS SYSTEM
 AA  2.725980E-06 BB  4.665934E-07 CC -3.192574E-06

 PRINCIPAL AXES
         X             Y             Z
 A  8.970080E-01  3.105986E-01 -3.144919E-01
 B -4.368939E-01  7.309996E-01 -5.241786E-01
 C  6.708433E-02  6.075920E-01  7.914112E-01

 ANGLES BETWEEN PRINCIPAL AXES AND ORIGINAL AXES (DEGREES)
         X             Y             Z
 A     26.232471     71.904693    108.330143
 B    115.905870     43.029738    121.612965
 C     86.153463     52.584406     37.682417


 POINT   ATOM  MASS NO  NUCLEAR G FACTOR
   48   48 O      17      -0.7575220

 TENSOR IN ORIGINAL CARTESIAN AXES
 XX -4.725129E-07 YY  4.195394E-06 ZZ -3.722881E-06 XY  5.577734E-07 XZ  1.890338E-07 YZ  2.840446E-08

 TENSOR IN PRINCIPAL AXIS SYSTEM
 AA -5.275935E-07 BB  4.261434E-06 CC -3.733840E-06

 PRINCIPAL AXES
         X             Y             Z
 A  9.914794E-01 -1.168281E-01  5.761756E-02
 B  1.166605E-01  9.931520E-01  6.274257E-03
 C -5.795600E-02  5.008983E-04  9.983190E-01

 ANGLES BETWEEN PRINCIPAL AXES AND ORIGINAL AXES (DEGREES)
         X             Y             Z
 A      7.484819     96.709076     86.696928
 B     83.300589      6.709138     89.640509
 C     93.322496     89.971301      3.322620


 POINT   ATOM  MASS NO  NUCLEAR G FACTOR
   49   49 O      17      -0.7575220

 TENSOR IN ORIGINAL CARTESIAN AXES
 XX  2.364504E-04 YY -7.745654E-05 ZZ -1.589939E-04 XY -1.796476E-04 XZ -1.244696E-05 YZ  1.066753E-05

 TENSOR IN PRINCIPAL AXIS SYSTEM
 AA  3.185693E-04 BB -1.547164E-04 CC -1.638529E-04

 PRINCIPAL AXES
         X             Y             Z
 A  9.098528E-01 -4.136205E-01 -3.295315E-02
 B  3.205349E-01  6.502109E-01  6.888274E-01
 C -2.634866E-01 -6.372942E-01  7.241760E-01

 ANGLES BETWEEN PRINCIPAL AXES AND ORIGINAL AXES (DEGREES)
         X             Y             Z
 A     24.514976    114.432470     91.888418
 B     71.304726     49.442495     46.462641
 C    105.277046    129.590350     43.599655


 POINT   ATOM  MASS NO  NUCLEAR G FACTOR
   50   50 O      17      -0.7575220

 TENSOR IN ORIGINAL CARTESIAN AXES
 XX  3.434567E-05 YY -1.624560E-05 ZZ -1.810007E-05 XY  2.446678E-06 XZ  3.165469E-06 YZ  3.798761E-07

 TENSOR IN PRINCIPAL AXIS SYSTEM
 AA  3.465542E-05 BB -1.633741E-05 CC -1.831801E-05

 PRINCIPAL AXES
         X             Y             Z
 A  9.970136E-01  4.836947E-02  6.020128E-02
 B -5.505599E-02  9.918520E-01  1.148849E-01
 C -5.415384E-02 -1.178563E-01  9.915530E-01

 ANGLES BETWEEN PRINCIPAL AXES AND ORIGINAL AXES (DEGREES)
         X             Y             Z
 A      4.429113     87.227552     86.548634
 B     93.156072      7.319134     83.403014
 C     93.104305     96.768397      7.452400


 POINT   ATOM  MASS NO  NUCLEAR G FACTOR
   51   51 O      17      -0.7575220

 TENSOR IN ORIGINAL CARTESIAN AXES
 XX  2.348385E-05 YY -1.413953E-05 ZZ -9.344319E-06 XY  1.489543E-05 XZ  3.242066E-05 YZ  7.117740E-06

 TENSOR IN PRINCIPAL AXIS SYSTEM
 AA  4.776535E-05 BB -1.823864E-05 CC -2.952671E-05

 PRINCIPAL AXES
         X             Y             Z
 A  8.264764E-01  2.564867E-01  5.011500E-01
 B -1.380683E-01  9.553468E-01 -2.612462E-01
 C -5.457783E-01  1.467209E-01  8.249843E-01

 ANGLES BETWEEN PRINCIPAL AXES AND ORIGINAL AXES (DEGREES)
         X             Y             Z
 A     34.261538     75.138305     59.923885
 B     97.936082     17.186728    105.144020
 C    123.077864     81.563055     34.413102


 POINT   ATOM  MASS NO  NUCLEAR G FACTOR
   52   52 O      17      -0.7575220

 TENSOR IN ORIGINAL CARTESIAN AXES
 XX  7.934191E-06 YY -4.617266E-06 ZZ -3.316924E-06 XY -3.661279E-06 XZ  2.497952E-06 YZ -1.761954E-07

 TENSOR IN PRINCIPAL AXIS SYSTEM
 AA  9.399559E-06 BB -5.723625E-06 CC -3.675934E-06

 PRINCIPAL AXES
         X             Y             Z
 A  9.493358E-01 -2.503600E-01  1.899509E-01
 B  2.915207E-01  9.273160E-01 -2.347353E-01
 C -1.173762E-01  2.782173E-01  9.533194E-01

 ANGLES BETWEEN PRINCIPAL AXES AND ORIGINAL AXES (DEGREES)
         X             Y             Z
 A     18.316351    104.498815     79.050080
 B     73.050982     21.979775    103.576023
 C     96.740699     73.846164     17.575581


 POINT   ATOM  MASS NO  NUCLEAR G FACTOR
   53   53 O      17      -0.7575220

 TENSOR IN ORIGINAL CARTESIAN AXES
 XX  2.240807E-06 YY  5.907392E-07 ZZ -2.831547E-06 XY -1.861120E-06 XZ -7.788040E-07 YZ  2.548649E-07

 TENSOR IN PRINCIPAL AXIS SYSTEM
 AA  3.549973E-06 BB -6.013408E-07 CC -2.948633E-06

 PRINCIPAL AXES
         X             Y             Z
 A  8.351652E-01 -5.359108E-01 -1.236878E-01
 B  5.286779E-01  8.442346E-01 -8.813373E-02
 C  1.516533E-01  8.215231E-03  9.883996E-01

 ANGLES BETWEEN PRINCIPAL AXES AND ORIGINAL AXES (DEGREES)
         X             Y             Z
 A     33.366955    122.405702     97.104983
 B     58.083830     32.409975     95.056251
 C     81.277248     89.529297      8.735641


 POINT   ATOM  MASS NO  NUCLEAR G FACTOR
   54   54 O      17      -0.7575220

 TENSOR IN ORIGINAL CARTESIAN AXES
 XX  5.049731E-07 YY  5.487579E-07 ZZ -1.053731E-06 XY -8.437471E-08 XZ  1.124645E-06 YZ  5.097816E-06

 TENSOR IN PRINCIPAL AXIS SYSTEM
 AA  5.420744E-07 BB  5.008407E-06 CC -5.550481E-06

 PRINCIPAL AXES
         X             Y             Z
 A  9.774516E-01 -2.105152E-01  1.648492E-02
 B  1.490208E-01  7.430178E-01  6.524702E-01
 C -1.496035E-01 -6.353014E-01  7.576351E-01

 ANGLES BETWEEN PRINCIPAL AXES AND ORIGINAL AXES (DEGREES)
         X             Y             Z
 A     12.190318    102.152544     89.055441
 B     81.429816     42.010875     49.271897
 C     98.603947    129.442344     40.743847


 POINT   ATOM  MASS NO  NUCLEAR G FACTOR
   55   55 O      17      -0.7575220

 TENSOR IN ORIGINAL CARTESIAN AXES
 XX  4.103048E-05 YY -1.278768E-04 ZZ  8.684628E-05 XY -2.931215E-05 XZ -1.590379E-06 YZ  4.885616E-05

 TENSOR IN PRINCIPAL AXIS SYSTEM
 AA  4.428132E-05 BB -1.428351E-04 CC  9.855379E-05

 PRINCIPAL AXES
         X             Y             Z
 A  9.780837E-01 -1.178061E-01  1.716800E-01
 B  1.523762E-01  9.669088E-01 -2.046187E-01
 C -1.418936E-01  2.262942E-01  9.636686E-01

 ANGLES BETWEEN PRINCIPAL AXES AND ORIGINAL AXES (DEGREES)
         X             Y             Z
 A     12.017601     96.765503     80.114487
 B     81.235342     14.780827    101.807181
 C     98.157435     76.921006     15.491823


 POINT   ATOM  MASS NO  NUCLEAR G FACTOR
   56   56 O      17      -0.7575220

 TENSOR IN ORIGINAL CARTESIAN AXES
 XX  2.137775E-05 YY -6.110999E-05 ZZ  3.973224E-05 XY  5.724886E-06 XZ -1.258653E-06 YZ -4.655653E-05

 TENSOR IN PRINCIPAL AXIS SYSTEM
 AA  2.132396E-05 BB -7.955233E-05 CC  5.822837E-05

 PRINCIPAL AXES
         X             Y             Z
 A  9.949098E-01  1.263185E-02  9.997435E-02
 B -4.826421E-02  9.306473E-01  3.627205E-01
 C -8.845902E-02 -3.656994E-01  9.265198E-01

 ANGLES BETWEEN PRINCIPAL AXES AND ORIGINAL AXES (DEGREES)
         X             Y             Z
 A      5.783467     89.276229     84.262307
 B     92.766410     21.464057     68.732634
 C     95.074962    111.450631     22.101343


 POINT   ATOM  MASS NO  NUCLEAR G FACTOR
   57   57 SI     29      -1.1106000

 TENSOR IN ORIGINAL CARTESIAN AXES
 XX  2.193409E-07 YY  5.764371E-06 ZZ -5.983712E-06 XY -1.744551E-06 XZ  7.416431E-06 YZ  6.266764E-07

 TENSOR IN PRINCIPAL AXIS SYSTEM
 AA  4.365737E-06 BB  6.687606E-06 CC -1.105334E-05

 PRINCIPAL AXES
         X             Y             Z
 A  6.442614E-01  5.811048E-01  4.972369E-01
 B -5.239002E-01  8.089771E-01 -2.666169E-01
 C -5.571856E-01 -8.873151E-02  8.256337E-01

 ANGLES BETWEEN PRINCIPAL AXES AND ORIGINAL AXES (DEGREES)
         X             Y             Z
 A     49.889679     54.471716     60.182640
 B    121.594237     36.003888    105.463053
 C    123.861386     95.090636     34.347213


 POINT   ATOM  MASS NO  NUCLEAR G FACTOR
   58   58 SI     29      -1.1106000

 TENSOR IN ORIGINAL CARTESIAN AXES
 XX -4.095020E-05 YY -2.790393E-04 ZZ  3.199895E-04 XY -5.010294E-04 XZ  1.361832E-04 YZ  1.734231E-04

 TENSOR IN PRINCIPAL AXIS SYSTEM
 AA  3.549456E-04 BB -7.216499E-04 CC  3.667043E-04

 PRINCIPAL AXES
         X             Y             Z
 A  7.906619E-01 -6.097647E-01  5.514378E-02
 B  6.064698E-01  7.676600E-01 -2.071050E-01
 C  8.395365E-02  1.971931E-01  9.767634E-01

 ANGLES BETWEEN PRINCIPAL AXES AND ORIGINAL AXES (DEGREES)
         X             Y             Z
 A     37.752594    127.572492     86.838891
 B     52.665318     39.855778    101.952752
 C     85.184142     78.627135     12.375672


 POINT   ATOM  MASS NO  NUCLEAR G FACTOR
   59   59 SI     29      -1.1106000

 TENSOR IN ORIGINAL CARTESIAN AXES
 XX -1.506237E-06 YY -4.864570E-06 ZZ  6.370807E-06 XY  1.049162E-05 XZ  4.998547E-06 YZ -7.259073E-06

 TENSOR IN PRINCIPAL AXIS SYSTEM
 AA  7.154707E-06 BB -1.709109E-05 CC  9.936388E-06

 PRINCIPAL AXES
         X             Y             Z
 A  8.010003E-01  5.194188E-01  2.976619E-01
 B -5.977759E-01  7.210122E-01  3.504358E-01
 C -3.259489E-02 -4.586343E-01  8.880271E-01

 ANGLES BETWEEN PRINCIPAL AXES AND ORIGINAL AXES (DEGREES)
         X             Y             Z
 A     36.774268     58.706725     72.682776
 B    126.710776     43.861883     69.486025
 C     91.867880    117.299018     27.373629


 POINT   ATOM  MASS NO  NUCLEAR G FACTOR
   60   60 SI     29      -1.1106000

 TENSOR IN ORIGINAL CARTESIAN AXES
 XX  1.290692E-06 YY  3.610199E-06 ZZ -4.900891E-06 XY  1.694832E-06 XZ  1.546721E-07 YZ  3.992063E-06

 TENSOR IN PRINCIPAL AXIS SYSTEM
 AA  7.253653E-07 BB  5.785277E-06 CC -6.510642E-06

 PRINCIPAL AXES
         X             Y             Z
 A  9.371471E-01 -2.962845E-01 -1.843117E-01
 B  3.431623E-01  8.782591E-01  3.330173E-01
 C  6.320561E-02 -3.753351E-01  9.247317E-01

 ANGLES BETWEEN PRINCIPAL AXES AND ORIGINAL AXES (DEGREES)
         X             Y             Z
 A     20.422160    107.234575    100.621008
 B     69.930345     28.566928     70.547982
 C     86.376170    112.045023     22.372074


 POINT   ATOM  MASS NO  NUCLEAR G FACTOR
   61   61 SI     29      -1.1106000

 TENSOR IN ORIGINAL CARTESIAN AXES
 XX  1.577985E-05 YY  1.310309E-06 ZZ -1.709016E-05 XY -1.533820E-05 XZ  1.997460E-05 YZ  3.198926E-05

 TENSOR IN PRINCIPAL AXIS SYSTEM
 AA  2.558339E-05 BB  2.513023E-05 CC -5.071362E-05

 PRINCIPAL AXES
         X             Y             Z
 A  6.011301E-01 -7.485761E-01 -2.797792E-01
 B  7.163776E-01  3.496021E-01  6.038058E-01
 C -3.541832E-01 -5.633934E-01  7.464195E-01

 ANGLES BETWEEN PRINCIPAL AXES AND ORIGINAL AXES (DEGREES)
         X             Y             Z
 A     53.049123    138.467187    106.247028
 B     44.243788     69.537018     52.857040
 C    110.743394    124.290802     41.718830


 POINT   ATOM  MASS NO  NUCLEAR G FACTOR
   62   62 SI     29      -1.1106000

 TENSOR IN ORIGINAL CARTESIAN AXES
 XX -9.824460E-06 YY  8.697165E-06 ZZ  1.127295E-06 XY -9.113915E-06 XZ  1.580188E-05 YZ  7.858206E-06

 TENSOR IN PRINCIPAL AXIS SYSTEM
 AA -2.529946E-05 BB  1.156221E-05 CC  1.373726E-05

 PRINCIPAL AXES
         X             Y             Z
 A  7.625227E-01  3.326766E-01 -5.548743E-01
 B -6.303280E-01  5.752486E-01 -5.213210E-01
 C  1.457594E-01  7.472719E-01  6.483355E-01

 ANGLES BETWEEN PRINCIPAL AXES AND ORIGINAL AXES (DEGREES)
         X             Y             Z
 A     40.312903     70.568685    123.702057
 B    129.074327     54.882954    121.420905
 C     81.618744     41.645389     49.583778


 POINT   ATOM  MASS NO  NUCLEAR G FACTOR
   63   63 SI     29      -1.1106000

 TENSOR IN ORIGINAL CARTESIAN AXES
 XX  4.308439E-07 YY -2.687199E-07 ZZ -1.621240E-07 XY  4.875508E-07 XZ  2.941053E-07 YZ  8.691481E-08

 TENSOR IN PRINCIPAL AXIS SYSTEM
 AA  7.779566E-07 BB -5.300654E-07 CC -2.478912E-07

 PRINCIPAL AXES
         X             Y             Z
 A  8.532119E-01  4.228811E-01  3.052884E-01
 B -4.898716E-01  8.506726E-01  1.907407E-01
 C -1.790399E-01 -3.122943E-01  9.329614E-01

 ANGLES BETWEEN PRINCIPAL AXES AND ORIGINAL AXES (DEGREES)
         X             Y             Z
 A     31.437250     64.983381     72.224482
 B    119.332143     31.715103     79.003989
 C    100.313841    108.197552     21.098749


 POINT   ATOM  MASS NO  NUCLEAR G FACTOR
   64   64 SI     29      -1.1106000

 TENSOR IN ORIGINAL CARTESIAN AXES
 XX -3.144953E-06 YY  2.195771E-06 ZZ  9.491822E-07 XY  2.780040E-08 XZ -2.292698E-06 YZ -1.803899E-07

 TENSOR IN PRINCIPAL AXIS SYSTEM
 AA -4.171842E-06 BB  2.293580E-06 CC  1.878262E-06

 PRINCIPAL AXES
         X             Y             Z
 A  9.125782E-01  7.597758E-03  4.088316E-01
 B  1.921008E-01  8.746563E-01 -4.450546E-01
 C -3.609686E-01  4.846840E-01  7.967328E-01

 ANGLES BETWEEN PRINCIPAL AXES AND ORIGINAL AXES (DEGREES)
         X             Y             Z
 A     24.135893     89.564676     65.868539
 B     78.924593     28.995669    116.426830
 C    111.159693     61.008231     37.180771


 POINT   ATOM  MASS NO  NUCLEAR G FACTOR
   65   65 SI     29      -1.1106000

 TENSOR IN ORIGINAL CARTESIAN AXES
 XX  4.601612E-06 YY  3.302938E-06 ZZ -7.904549E-06 XY  2.654342E-07 XZ  2.662424E-06 YZ -4.468703E-06

 TENSOR IN PRINCIPAL AXIS SYSTEM
 AA  5.594096E-06 BB  4.340242E-06 CC -9.934337E-06

 PRINCIPAL AXES
         X             Y             Z
 A  7.495753E-01 -5.699772E-01  3.365455E-01
 B  6.379738E-01  7.576262E-01 -1.378112E-01
 C -1.764265E-01  3.180071E-01  9.315284E-01

 ANGLES BETWEEN PRINCIPAL AXES AND ORIGINAL AXES (DEGREES)
         X             Y             Z
 A     41.446396    124.748633     70.333452
 B     50.359105     40.744623     97.921210
 C    100.161681     71.457554     21.325666


 POINT   ATOM  MASS NO  NUCLEAR G FACTOR
   66   66 SI     29      -1.1106000

 TENSOR IN ORIGINAL CARTESIAN AXES
 XX -2.135231E-06 YY -6.531679E-06 ZZ  8.666911E-06 XY -1.724299E-06 XZ -5.096580E-06 YZ -4.764491E-06

 TENSOR IN PRINCIPAL AXIS SYSTEM
 AA -2.118512E-06 BB -9.402642E-06 CC  1.152115E-05

 PRINCIPAL AXES
         X             Y             Z
 A  8.414392E-01 -5.125668E-01  1.710420E-01
 B  4.370056E-01  8.316919E-01  3.425123E-01
 C -3.178147E-01 -2.134570E-01  9.238127E-01

 ANGLES BETWEEN PRINCIPAL AXES AND ORIGINAL AXES (DEGREES)
         X             Y             Z
 A     32.707592    120.834955     80.151592
 B     64.087016     33.727070     69.969987
 C    108.530818    102.325017     22.510001


 POINT   ATOM  MASS NO  NUCLEAR G FACTOR
   67   67 SI     29      -1.1106000

 TENSOR IN ORIGINAL CARTESIAN AXES
 XX -1.409990E-08 YY -4.531871E-06 ZZ  4.545971E-06 XY  4.443719E-06 XZ  2.116072E-06 YZ -5.596127E-07

 TENSOR IN PRINCIPAL AXIS SYSTEM
 AA  1.923361E-06 BB -7.470519E-06 CC  5.547159E-06

 PRINCIPAL AXES
         X             Y             Z
 A  7.117109E-01  5.298942E-01 -4.611721E-01
 B -5.347299E-01  8.344080E-01  1.335182E-01
 C  4.555562E-01  1.515762E-01  8.772076E-01

 ANGLES BETWEEN PRINCIPAL AXES AND ORIGINAL AXES (DEGREES)
         X             Y             Z
 A     44.625710     58.001693    117.462768
 B    122.325599     33.445750     82.327058
 C     62.899271     81.281719     28.692669


 POINT   ATOM  MASS NO  NUCLEAR G FACTOR
   68   68 SI     29      -1.1106000

 TENSOR IN ORIGINAL CARTESIAN AXES
 XX  3.406074E-07 YY -2.251460E-06 ZZ  1.910853E-06 XY -1.414718E-06 XZ -6.880467E-07 YZ -2.096503E-07

 TENSOR IN PRINCIPAL AXIS SYSTEM
 AA  7.247756E-07 BB -2.920324E-06 CC  2.195548E-06

 PRINCIPAL AXES
         X             Y             Z
 A  8.164890E-01 -4.162864E-01  4.000642E-01
 B  4.133640E-01  9.052425E-01  9.831689E-02
 C -4.030831E-01  8.509746E-02  9.111984E-01

 ANGLES BETWEEN PRINCIPAL AXES AND ORIGINAL AXES (DEGREES)
         X             Y             Z
 A     35.265145    114.600357     66.417809
 B     65.583670     25.144034     84.357742
 C    113.771060     85.118371     24.328516


 POINT   ATOM  MASS NO  NUCLEAR G FACTOR
   69   69 SI     29      -1.1106000

 TENSOR IN ORIGINAL CARTESIAN AXES
 XX -1.309594E-06 YY  8.062348E-08 ZZ  1.228971E-06 XY -1.682706E-07 XZ  4.197367E-07 YZ -2.666954E-07

 TENSOR IN PRINCIPAL AXIS SYSTEM
 AA -1.387847E-06 BB  2.535391E-08 CC  1.362493E-06

 PRINCIPAL AXES
         X             Y             Z
 A  9.850705E-01  8.576887E-02 -1.492639E-01
 B -4.939633E-02  9.714143E-01  2.321944E-01
 C  1.649122E-01 -2.213548E-01  9.611483E-01

 ANGLES BETWEEN PRINCIPAL AXES AND ORIGINAL AXES (DEGREES)
         X             Y             Z
 A      9.912915     85.079760     98.584272
 B     92.831353     13.732574     76.573701
 C     80.507869    102.788617     16.023555


 POINT   ATOM  MASS NO  NUCLEAR G FACTOR
   70   70 SI     29      -1.1106000

 TENSOR IN ORIGINAL CARTESIAN AXES
 XX -1.417076E-06 YY  4.585466E-06 ZZ -3.168390E-06 XY -6.716435E-06 XZ -1.239643E-05 YZ -8.848767E-06

 TENSOR IN PRINCIPAL AXIS SYSTEM
 AA -1.974877E-05 BB  8.821358E-06 CC  1.092741E-05

 PRINCIPAL AXES
         X             Y             Z
 A  6.092658E-01  4.141751E-01  6.762057E-01
 B -6.761674E-01  7.168245E-01  1.701772E-01
 C -4.142377E-01 -5.609114E-01  7.167884E-01

 ANGLES BETWEEN PRINCIPAL AXES AND ORIGINAL AXES (DEGREES)
         X             Y             Z
 A     52.463568     65.532620     47.452148
 B    132.544870     44.207074     80.201881
 C    114.471321    124.118849     44.210046


 POINT   ATOM  MASS NO  NUCLEAR G FACTOR
   71   71 SI     29      -1.1106000

 TENSOR IN ORIGINAL CARTESIAN AXES
 XX -2.826477E-06 YY -2.090987E-06 ZZ  4.917464E-06 XY  5.895427E-06 XZ  1.018944E-07 YZ  1.333736E-07

 TENSOR IN PRINCIPAL AXIS SYSTEM
 AA -8.365639E-06 BB  3.429418E-06 CC  4.936221E-06

 PRINCIPAL AXES
         X             Y             Z
 A  7.288824E-01 -6.846378E-01  1.267122E-03
 B  6.804715E-01  7.242405E-01 -1.115091E-01
 C  7.542566E-02  8.213929E-02  9.937626E-01

 ANGLES BETWEEN PRINCIPAL AXES AND ORIGINAL AXES (DEGREES)
         X             Y             Z
 A     43.207217    133.207125     89.927399
 B     47.119503     43.594298     96.402318
 C     85.674320     85.288457      6.402733


 POINT   ATOM  MASS NO  NUCLEAR G FACTOR
   72   72 SI     29      -1.1106000

 TENSOR IN ORIGINAL CARTESIAN AXES
 XX  6.833373E-07 YY -1.381860E-06 ZZ  6.985231E-07 XY  8.348325E-06 XZ -5.934333E-06 YZ  7.825952E-06

 TENSOR IN PRINCIPAL AXIS SYSTEM
 AA  8.331244E-06 BB -1.491417E-05 CC  6.582924E-06

 PRINCIPAL AXES
         X             Y             Z
 A  5.633201E-01  7.547556E-01  3.361762E-01
 B -5.481197E-01  6.458241E-01 -5.314847E-01
 C -6.182518E-01  1.151312E-01  7.775021E-01

 ANGLES BETWEEN PRINCIPAL AXES AND ORIGINAL AXES (DEGREES)
         X             Y             Z
 A     55.714285     40.995980     70.355919
 B    123.238114     49.772507    122.105824
 C    128.188582     83.388810     38.967562


 POINT   ATOM  MASS NO  NUCLEAR G FACTOR
   73   73 SI     29      -1.1106000

 TENSOR IN ORIGINAL CARTESIAN AXES
 XX -9.779846E-07 YY -1.055697E-05 ZZ  1.153496E-05 XY -1.440492E-05 XZ -3.392937E-06 YZ -1.121036E-07

 TENSOR IN PRINCIPAL AXIS SYSTEM
 AA  7.632590E-06 BB -2.108084E-05 CC  1.344825E-05

 PRINCIPAL AXES
         X             Y             Z
 A  6.520364E-01 -5.197701E-01  5.519852E-01
 B  5.883477E-01  8.060686E-01  6.403470E-02
 C -4.782212E-01  2.830063E-01  8.313915E-01

 ANGLES BETWEEN PRINCIPAL AXES AND ORIGINAL AXES (DEGREES)
         X             Y             Z
 A     49.304689    121.316830     56.496688
 B     53.960155     36.286422     86.328570
 C    118.569292     73.560289     33.758050


 POINT   ATOM  MASS NO  NUCLEAR G FACTOR
   74   74 SI     29      -1.1106000

 TENSOR IN ORIGINAL CARTESIAN AXES
 XX  1.831292E-06 YY  4.598399E-06 ZZ -6.429691E-06 XY -6.001395E-07 XZ  4.656570E-06 YZ -7.879858E-07

 TENSOR IN PRINCIPAL AXIS SYSTEM
 AA  3.334568E-06 BB  5.206220E-06 CC -8.540789E-06

 PRINCIPAL AXES
         X             Y             Z
 A  7.612866E-01  5.652815E-01  3.176469E-01
 B -5.043292E-01  8.241070E-01 -2.578755E-01
 C -4.075472E-01  3.611856E-02  9.124696E-01

 ANGLES BETWEEN PRINCIPAL AXES AND ORIGINAL AXES (DEGREES)
         X             Y             Z
 A     40.422245     55.578160     71.479323
 B    120.286833     34.501944    104.944038
 C    114.050849     87.930109     24.151111


 POINT   ATOM  MASS NO  NUCLEAR G FACTOR
   75   75 SI     29      -1.1106000

 TENSOR IN ORIGINAL CARTESIAN AXES
 XX -2.339263E-06 YY  5.959985E-07 ZZ  1.743265E-06 XY -1.621977E-06 XZ -1.155161E-06 YZ  1.786545E-08

 TENSOR IN PRINCIPAL AXIS SYSTEM
 AA -3.280185E-06 BB  1.066523E-06 CC  2.213662E-06

 PRINCIPAL AXES
         X             Y             Z
 A  9.029867E-01  3.768993E-01  2.063055E-01
 B -2.531128E-01  8.546041E-01 -4.534156E-01
 C -3.472016E-01  3.572097E-01  8.670942E-01

 ANGLES BETWEEN PRINCIPAL AXES AND ORIGINAL AXES (DEGREES)
         X             Y             Z
 A     25.446524     67.858252     78.094067
 B    104.661790     31.283976    116.963039
 C    110.316245     69.071066     29.877301


 POINT   ATOM  MASS NO  NUCLEAR G FACTOR
   76   76 SI     29      -1.1106000

 TENSOR IN ORIGINAL CARTESIAN AXES
 XX  2.050387E-06 YY -1.727197E-06 ZZ -3.231900E-07 XY -9.544575E-07 XZ  2.483089E-06 YZ -4.283757E-06

 TENSOR IN PRINCIPAL AXIS SYSTEM
 AA  5.299610E-06 BB  1.801720E-07 CC -5.479782E-06

 PRINCIPAL AXES
         X             Y             Z
 A  6.192238E-01 -4.683340E-01  6.302580E-01
 B  7.746735E-01  4.954504E-01 -3.929502E-01
 C -1.282297E-01  7.315683E-01  6.696006E-01

 ANGLES BETWEEN PRINCIPAL AXES AND ORIGINAL AXES (DEGREES)
         X             Y             Z
 A     51.740526    117.926205     50.930838
 B     39.224559     60.300546    113.138195
 C     97.367303     42.981967     47.963754


 POINT   ATOM  MASS NO  NUCLEAR G FACTOR
   77   77 SI     29      -1.1106000

 TENSOR IN ORIGINAL CARTESIAN AXES
 XX  4.348086E-06 YY -5.056773E-07 ZZ -3.842408E-06 XY -3.009597E-06 XZ -4.776460E-06 YZ -8.433640E-06

 TENSOR IN PRINCIPAL AXIS SYSTEM
 AA  5.630684E-06 BB  6.991945E-06 CC -1.262263E-05

 PRINCIPAL AXES
         X             Y             Z
 A  7.252074E-01 -6.536007E-01  2.165187E-01
 B  6.128467E-01  4.694108E-01 -6.356669E-01
 C  3.138361E-01  5.936831E-01  7.409772E-01

 ANGLES BETWEEN PRINCIPAL AXES AND ORIGINAL AXES (DEGREES)
         X             Y             Z
 A     43.513894    130.813631     77.495361
 B     52.204377     62.003942    129.469466
 C     71.709434     53.581189     42.185273


 POINT   ATOM  MASS NO  NUCLEAR G FACTOR
   78   78 SI     29      -1.1106000

 TENSOR IN ORIGINAL CARTESIAN AXES
 XX  2.044037E-06 YY -1.771595E-06 ZZ -2.724416E-07 XY -2.381105E-06 XZ  2.768314E-07 YZ  1.469970E-06

 TENSOR IN PRINCIPAL AXIS SYSTEM
 AA  3.234571E-06 BB -3.555231E-06 CC  3.206602E-07

 PRINCIPAL AXES
         X             Y             Z
 A  8.821929E-01 -4.550230E-01 -1.212014E-01
 B  3.751515E-01  8.347166E-01 -4.031248E-01
 C  2.845999E-01  3.101649E-01  9.070836E-01

 ANGLES BETWEEN PRINCIPAL AXES AND ORIGINAL AXES (DEGREES)
         X             Y             Z
 A     28.091969    117.066416     96.961443
 B     67.966324     33.413662    113.773670
 C     73.465068     71.930830     24.894615


 POINT   ATOM  MASS NO  NUCLEAR G FACTOR
   79   79 SI     29      -1.1106000

 TENSOR IN ORIGINAL CARTESIAN AXES
 XX -7.721506E-07 YY -2.137835E-06 ZZ  2.909986E-06 XY  6.591281E-06 XZ  1.310185E-06 YZ -1.679288E-06

 TENSOR IN PRINCIPAL AXIS SYSTEM
 AA  5.183450E-06 BB -8.477958E-06 CC  3.294508E-06

 PRINCIPAL AXES
         X             Y             Z
 A  7.319310E-01  6.768800E-01 -7.816962E-02
 B -6.568422E-01  7.314248E-01  1.832378E-01
 C  1.812052E-01 -8.277229E-02  9.799558E-01

 ANGLES BETWEEN PRINCIPAL AXES AND ORIGINAL AXES (DEGREES)
         X             Y             Z
 A     42.951481     47.399684     94.483363
 B    131.059487     42.994030     79.441592
 C     79.560034     94.747935     11.491051


 POINT   ATOM  MASS NO  NUCLEAR G FACTOR
   80   80 SI     29      -1.1106000

 TENSOR IN ORIGINAL CARTESIAN AXES
 XX  3.819018E-06 YY  5.012581E-06 ZZ -8.831600E-06 XY  7.826790E-06 XZ  1.068064E-05 YZ -1.003531E-05

 TENSOR IN PRINCIPAL AXIS SYSTEM
 AA  8.767744E-06 BB  1.226669E-05 CC -2.103444E-05

 PRINCIPAL AXES
         X             Y             Z
 A  5.761675E-01 -5.086555E-01  6.397661E-01
 B  6.702330E-01  7.420253E-01 -1.364762E-02
 C -4.677806E-01  4.366556E-01  7.684485E-01

 ANGLES BETWEEN PRINCIPAL AXES AND ORIGINAL AXES (DEGREES)
         X             Y             Z
 A     54.818564    120.574312     50.225623
 B     47.914951     42.095776     90.781975
 C    117.890329     64.109309     39.785229


 POINT   ATOM  MASS NO  NUCLEAR G FACTOR
   81   81 SI     29      -1.1106000

 TENSOR IN ORIGINAL CARTESIAN AXES
 XX  7.267861E-07 YY -8.607287E-07 ZZ  1.339426E-07 XY -3.736079E-06 XZ -1.487012E-06 YZ -4.954909E-06

 TENSOR IN PRINCIPAL AXIS SYSTEM
 AA  5.238088E-06 BB -7.178204E-06 CC  1.940116E-06

 PRINCIPAL AXES
         X             Y             Z
 A  4.009430E-01 -7.129722E-01  5.752525E-01
 B  4.372270E-01  7.007291E-01  5.637476E-01
 C -8.050325E-01  2.548520E-02  5.926831E-01

 ANGLES BETWEEN PRINCIPAL AXES AND ORIGINAL AXES (DEGREES)
         X             Y             Z
 A     66.362855    135.477256     54.882686
 B     64.072917     45.514475     55.684631
 C    143.613391     88.539648     53.652360


 POINT   ATOM  MASS NO  NUCLEAR G FACTOR
   82   82 SI     29      -1.1106000

 TENSOR IN ORIGINAL CARTESIAN AXES
 XX  8.129173E-06 YY -1.465890E-05 ZZ  6.529729E-06 XY -3.490911E-06 XZ -7.943015E-07 YZ  2.900131E-07

 TENSOR IN PRINCIPAL AXIS SYSTEM
 AA  8.937207E-06 BB -1.518300E-05 CC  6.245796E-06

 PRINCIPAL AXES
         X             Y             Z
 A  9.348015E-01 -1.422990E-01 -3.254183E-01
 B  1.478306E-01  9.889819E-01 -7.801715E-03
 C  3.229430E-01 -4.081374E-02  9.455380E-01

 ANGLES BETWEEN PRINCIPAL AXES AND ORIGINAL AXES (DEGREES)
         X             Y             Z
 A     20.803894     98.180901    108.990921
 B     81.498771      8.513148     90.447010
 C     71.159000     92.339105     18.996587


 POINT   ATOM  MASS NO  NUCLEAR G FACTOR
   83   83 SI     29      -1.1106000

 TENSOR IN ORIGINAL CARTESIAN AXES
 XX  2.608506E-06 YY -2.282929E-07 ZZ -2.380213E-06 XY  6.557033E-06 XZ  5.394808E-06 YZ -8.409206E-06

 TENSOR IN PRINCIPAL AXIS SYSTEM
 AA  8.238184E-06 BB -1.402735E-05 CC  5.789164E-06

 PRINCIPAL AXES
         X             Y             Z
 A  5.931681E-01  7.500208E-01 -2.926096E-01
 B -4.516505E-01  6.108840E-01  6.502558E-01
 C  6.664559E-01 -2.535537E-01  7.011042E-01

 ANGLES BETWEEN PRINCIPAL AXES AND ORIGINAL AXES (DEGREES)
         X             Y             Z
 A     53.617849     41.407818    107.014251
 B    116.849627     52.346551     49.439110
 C     48.205887    104.687905     45.484341


 POINT   ATOM  MASS NO  NUCLEAR G FACTOR
   84   84 SI     29      -1.1106000

 TENSOR IN ORIGINAL CARTESIAN AXES
 XX  6.498282E-06 YY -3.481846E-06 ZZ -3.016436E-06 XY  1.455418E-05 XZ -1.403282E-05 YZ  2.064596E-05

 TENSOR IN PRINCIPAL AXIS SYSTEM
 AA  1.653206E-05 BB -3.399040E-05 CC  1.745834E-05

 PRINCIPAL AXES
         X             Y             Z
 A  8.649651E-01  1.287053E-01 -4.850468E-01
 B -4.467430E-01  6.377723E-01 -6.274290E-01
 C  2.285959E-01  7.593955E-01  6.091490E-01

 ANGLES BETWEEN PRINCIPAL AXES AND ORIGINAL AXES (DEGREES)
         X             Y             Z
 A     30.121282     82.605216    119.015536
 B    116.534910     50.374096    128.860695
 C     76.785578     40.589068     52.472008


[...]
   9    9 O    10.1898   -3.9699  -15.0840   0.72272E-07
  10   10 O     0.4187    8.3041  -14.0552   0.88981E-06
  11   11 O     4.6065   -3.8577  -14.7946   0.64535E-07
  12   12 O    -6.6355    9.0163  -13.5739   0.30948E-05
  13   13 O     2.7464   -7.4425  -17.8249   0.68081E-06
  14   14 O    -0.9230   -1.9975  -16.7049   0.28530E-05
  15   15 O    -6.0471   -5.1767  -18.0173   0.38968E-06
  16   16 O     9.8444   -4.0646  -19.9589   0.15590E-06
  17   17 O     7.7810    2.4725  -16.1422  -0.53713E-07
  18   18 O     5.2971   -2.6554   -8.6516   0.97121E-06
  19   19 O     5.5216    6.7851  -14.7281   0.93445E-06
  20   20 O     3.7310    5.0880   -5.6743  -0.31879E-04
  21   21 O     4.2415   -8.8636  -13.1215   0.19174E-04
  22   22 O    -3.4994    6.5673   -1.0435  -0.42192E-05
  23   23 O     7.2572    1.8960   -7.6142   0.39984E-05
  24   24 O    -6.5449    4.1208  -12.2284  -0.12358E-05
  25   25 O     2.8423   -6.0613   -4.3086  -0.64480E-05
  26   26 O    -3.3015    2.4965   -9.1372  -0.38466E-05
  27   27 O    10.0495   10.0399   -5.4781   0.37101E-04
  28   28 O     2.9230   10.0334   -7.3195   0.21302E-04
  29   29 O     1.1735   -1.6624  -11.8255   0.19175E-06
  30   30 O    -1.4399   -2.3650    0.2352  -0.92345E-06
  31   31 O    -2.8132   -8.1889  -10.5567  -0.21830E-06
  32   32 O    10.1972   -7.0444   -9.2083   0.14939E-03
  33   33 O    -3.5242   -3.0713  -11.5251  -0.62276E-05
  34   34 O    10.1077   -0.8467   -0.7687  -0.23340E-04
  35   35 O    -9.5895   -7.3693    1.4118  -0.45472E-06
  36   36 O   -10.0156   -2.1646   -8.7195   0.23371E-05
  37   37 O    -9.2449   -4.1625   -4.4113  -0.78680E-05
  38   38 O    -2.3269    2.8264   -4.4502  -0.21942E-06
  39   39 O    -9.8018    8.2683   -0.9168  -0.34002E-04
  40   40 O    -6.2127    4.8524   -5.5918  -0.14749E-05
  41   41 O     1.2553   -0.0875   -7.0737  -0.22391E-06
  42   42 O     1.5853    0.9190   -2.0252  -0.19922E-04
  43   43 O     6.2969   -9.4378   -2.5079  -0.38014E-04
  44   44 O    -1.4531   -8.2022   -6.1299   0.77485E-07
  45   45 O    -6.8192    2.6860   -1.0917  -0.43689E-05
  46   46 O     3.2304    6.5277  -10.4961   0.37588E-05
  47   47 O    -0.7458    6.4981   -7.1087   0.10211E-05
  48   48 O     7.3433   -0.0963  -12.2128   0.23890E-06
  49   49 O    -9.7199    7.7955   -9.9755   0.26980E-03
  50   50 O    -4.7379    7.7094   -9.0954   0.52579E-05
  51   51 O    -5.9797   -6.1629   -7.5098   0.61353E-05
  52   52 O    -5.1798    9.8325   -4.8696   0.31244E-05
  53   53 O     0.9471   -5.1373   -8.8537  -0.45654E-06
  54   54 O    -1.3850   -9.0799   -1.3255  -0.74834E-05
  55   55 O     6.6609   -4.3382   -1.4998   0.15055E-04
  56   56 O     8.3533    5.7424   -4.5085  -0.81878E-05
  57   57 SI    0.3696    0.2576    0.8382  -0.92606E-06
  58   58 SI    6.0402    5.7835    0.8521  -0.85297E-04
  59   59 SI    3.4840    8.3633    3.5497  -0.58127E-05
  60   60 SI    8.8261    3.5027    3.5899  -0.64842E-06
  61   61 SI    1.0383    6.0319    6.5427  -0.28236E-04
  62   62 SI    6.0517    1.0733    6.1519  -0.95821E-05
  63   63 SI    3.6373    3.5218    9.0679  -0.28194E-05
  64   64 SI    8.4305    8.4173    9.0294   0.28285E-07
  65   65 SI    0.0811   -9.3822    1.5357  -0.83496E-06
  66   66 SI    5.3008   -5.0173    1.5792  -0.73225E-05
  67   67 SI    3.4927   -1.4894    3.5185  -0.82451E-05
  68   68 SI    8.8866   -6.4088    3.6912  -0.31398E-06
  69   69 SI    0.9896   -3.8216    6.4298  -0.84709E-06
  70   70 SI    6.2115   -9.1901    6.0736  -0.28653E-04
  71   71 SI    3.6291   -6.5866    8.7411  -0.29919E-06
  72   72 SI    8.4999   -1.4349    8.9217  -0.23018E-04
  73   73 SI   -8.6898    0.7852    1.2241  -0.35368E-05
  74   74 SI   -2.6510    7.0842    2.4045  -0.20506E-05
  75   75 SI   -6.4560    8.2644    4.3246  -0.16482E-05
  76   76 SI   -1.2443    3.2150    3.8960  -0.64343E-05
  77   77 SI   -9.3564    5.8460    6.5690  -0.10776E-04
  78   78 SI   -4.1800    0.9101    6.3836  -0.84794E-05
  79   79 SI   -6.6863    3.4473    9.0933  -0.53850E-05
  80   80 SI   -1.6569    8.5445    9.0898  -0.22370E-04
  81   81 SI   -7.9268   -9.9238    0.7324  -0.36493E-05
  82   82 SI   -2.5391   -3.5104   -2.5282  -0.33028E-05
  83   83 SI   -6.1609   -2.0416    3.7465  -0.23425E-04
  84   84 SI   -1.8082   -6.3455    4.2025  -0.11953E-04
  85   85 SI   -9.2525   -3.8326    6.3891  -0.23091E-05
  86   86 SI   -4.2957   -8.8857    6.7417  -0.11586E-05
  87   87 SI   -6.8761   -6.3244    9.1748   0.48448E-07
  88   88 SI   -1.6376   -1.4502    9.1730   0.44622E-06
  89   89 SI    0.9903    1.1028   11.6859  -0.24669E-05
  90   90 SI    5.9856    5.9705   11.9241  -0.43584E-05
  91   91 SI    1.0320   -8.9880   11.4618  -0.22646E-06
  92   92 SI    5.9876   -4.0179   11.5367  -0.10043E-04
  93   93 SI   -9.3864    1.0014   11.5822  -0.20674E-05
  94   94 SI   -4.2074    6.0732   11.7144  -0.66614E-05
  95   95 SI   -9.5347   -8.9854   11.4478  -0.17526E-05
  96   96 SI   -4.2581   -3.9724   11.8707  -0.53184E-06
  97   97 SI    3.2539    8.6041   14.3920  -0.26307E-05
  98   98 SI    8.6336    3.3833   14.4613  -0.34770E-05
  99   99 SI    0.5282    6.4199   17.2773  -0.15686E-06
 100  100 SI    6.3644    0.4847   17.1826   0.48871E-07
 101  101 SI    2.9474    2.9700   18.6470  -0.23454E-05
 102  102 SI    8.2509    7.9380   18.4649  -0.46489E-05
 103  103 SI    3.5031   -1.5150   14.2929  -0.36882E-05
 104  104 SI    8.5460   -6.4969   14.1999  -0.26970E-05
 105  105 SI    0.9516   -4.0469   16.9803  -0.17701E-05
 106  106 SI    5.8958   -8.8463   16.8479  -0.27544E-05
 107  107 SI    3.9611   -5.9300   19.6799  -0.92072E-06
 108  108 SI    6.8613   -2.5078  -19.0793  -0.84122E-08
 109  109 SI   -6.9315    8.7331   14.0238  -0.12579E-05
 110  110 SI   -1.5392    3.6497   14.3201  -0.44461E-06
 111  111 SI   -8.8728    5.8344   16.7424  -0.21925E-05
 112  112 SI   -4.0969    1.1179   16.8254   0.10145E-05
 113  113 SI   -6.2262    3.7084   19.6346  -0.90656E-07
 114  114 SI   -3.8179    7.4598   19.2579  -0.61753E-06
 115  115 SI   -6.8946   -1.3037   14.4032   0.11461E-05
 116  116 SI   -1.4649   -6.5886   14.2183   0.31918E-06
 117  117 SI   -9.2196   -4.2260   16.9220   0.16468E-05
 118  118 SI   -4.2361   -9.0342   16.6585   0.81426E-06
 119  119 SI   -5.2038   -5.1211   18.6521   0.11478E-04
 120  120 SI   -1.3043   -1.1499   19.4876   0.48032E-05
 121  121 SI    7.6716    5.4922  -16.4819  -0.72897E-06
 122  122 SI    0.4673   -0.1398  -14.4659   0.15422E-05
 123  123 SI    3.1635   -6.4891  -14.8710   0.31374E-05
 124  124 SI   -7.8369    8.9111  -16.4209   0.33729E-06
 125  125 SI    6.2219   -0.1962  -15.1162  -0.86369E-07
 126  126 SI   -9.1892   -5.5433  -17.2640   0.58509E-08
 127  127 SI   -4.5067   -1.9081  -17.1200  -0.26321E-05
 128  128 SI    6.2672    3.3015   -4.9071  -0.23307E-03
 129  129 SI   -4.2475    9.8216   -1.9642  -0.80841E-05
 130  130 SI    7.7521   -0.7303   -9.2529   0.56857E-06
 131  131 SI   -4.3897    1.7132  -11.9755  -0.63692E-04
 132  132 SI    1.4122   -7.5117   -6.5719  -0.18479E-06
 133  133 SI   -1.6128   -5.3213  -11.2662  -0.38682E-05
 134  134 SI   -8.8716   -4.8807   -7.4611   0.58811E-04
 135  135 SI    6.0375   -6.5251   -3.9398  -0.87710E-04
 136  136 SI   -3.4515    4.9116   -7.1889  -0.15626E-05
 137  137 SI   -3.4578    3.2029   -1.2403  -0.11512E-05
 138  138 SI    8.5710    8.5941   -3.1434  -0.54108E-05
 139  139 SI    2.2607    6.9437   -7.6120  -0.16367E-04
 140  140 SI    2.3416   -2.1510   -9.0765  -0.37133E-07
 141  141 SI   -8.3752    3.0237   -4.2935  -0.21243E-04
 142  142 SI   -6.9987    7.0324  -11.2143   0.90448E-04
 143  143 SI   -1.8841   -9.7026  -14.4598   0.23025E-05
 144  144 SI   -0.3441    0.1409   -4.4071  -0.22925E-06
 145  145 SI    3.3981    8.2155  -13.0749  -0.43039E-06
 146  146 SI    8.8741   -2.2970   -3.2535  -0.63842E-03
 147  147 SI    9.3095   -9.9455   -8.4783   0.16957E-02
 148  148 SI   -4.1711   -8.7885   -7.5354   0.69584E-06
 *******************************************************************************
 HYPERFINE COUPLING CONSTANTS (AN)
 *******************************************************************************
 POINT  ATOM  MASS N0    NUCLEAR      AN (MT)       AN (MHZ)    AN (CM**(-1))
                        G FACTOR
   1    1 O      17   -0.7575220   -0.25534E-05  -0.71560E-04  -0.23870E-08
   2    2 O      17   -0.7575220   -0.50818E-06  -0.14242E-04  -0.47506E-09
   3    3 O      17   -0.7575220    0.57247E-05   0.16044E-03   0.53516E-08
   4    4 O      17   -0.7575220    0.81988E-05   0.22977E-03   0.76644E-08
   5    5 O      17   -0.7575220   -0.67718E-05  -0.18978E-03  -0.63304E-08
   6    6 O      17   -0.7575220    0.25391E-04   0.71157E-03   0.23736E-07
   7    7 O      17   -0.7575220    0.67944E-04   0.19041E-02   0.63515E-07
   8    8 O      17   -0.7575220    0.10115E-04   0.28347E-03   0.94556E-08
   9    9 O      17   -0.7575220   -0.15633E-05  -0.43811E-04  -0.14614E-08
  10   10 O      17   -0.7575220   -0.19247E-04  -0.53940E-03  -0.17992E-07
  11   11 O      17   -0.7575220   -0.13959E-05  -0.39121E-04  -0.13049E-08
  12   12 O      17   -0.7575220   -0.66943E-04  -0.18761E-02  -0.62579E-07
  13   13 O      17   -0.7575220   -0.14726E-04  -0.41271E-03  -0.13766E-07
  14   14 O      17   -0.7575220   -0.61712E-04  -0.17295E-02  -0.57690E-07
  15   15 O      17   -0.7575220   -0.84289E-05  -0.23622E-03  -0.78795E-08
  16   16 O      17   -0.7575220   -0.33723E-05  -0.94508E-04  -0.31525E-08
  17   17 O      17   -0.7575220    0.11618E-05   0.32560E-04   0.10861E-08
  18   18 O      17   -0.7575220   -0.21008E-04  -0.58875E-03  -0.19638E-07
  19   19 O      17   -0.7575220   -0.20213E-04  -0.56646E-03  -0.18895E-07
  20   20 O      17   -0.7575220    0.68956E-03   0.19325E-01   0.64461E-06
  21   21 O      17   -0.7575220   -0.41474E-03  -0.11623E-01  -0.38770E-06
  22   22 O      17   -0.7575220    0.91264E-04   0.25577E-02   0.85314E-07
  23   23 O      17   -0.7575220   -0.86489E-04  -0.24238E-02  -0.80851E-07
  24   24 O      17   -0.7575220    0.26730E-04   0.74911E-03   0.24988E-07
  25   25 O      17   -0.7575220    0.13947E-03   0.39088E-02   0.13038E-06
  26   26 O      17   -0.7575220    0.83205E-04   0.23318E-02   0.77781E-07
  27   27 O      17   -0.7575220   -0.80252E-03  -0.22490E-01  -0.75020E-06
  28   28 O      17   -0.7575220   -0.46078E-03  -0.12913E-01  -0.43074E-06
  29   29 O      17   -0.7575220   -0.41476E-05  -0.11624E-03  -0.38772E-08
  30   30 O      17   -0.7575220    0.19975E-04   0.55979E-03   0.18673E-07
  31   31 O      17   -0.7575220    0.47219E-05   0.13233E-03   0.44141E-08
  32   32 O      17   -0.7575220   -0.32315E-02  -0.90562E-01  -0.30208E-05
  33   33 O      17   -0.7575220    0.13471E-03   0.37751E-02   0.12592E-06
  34   34 O      17   -0.7575220    0.50485E-03   0.14148E-01   0.47194E-06
  35   35 O      17   -0.7575220    0.98359E-05   0.27565E-03   0.91947E-08
  36   36 O      17   -0.7575220   -0.50553E-04  -0.14168E-02  -0.47258E-07
  37   37 O      17   -0.7575220    0.17019E-03   0.47695E-02   0.15909E-06
  38   38 O      17   -0.7575220    0.47462E-05   0.13301E-03   0.44368E-08
  39   39 O      17   -0.7575220    0.73549E-03   0.20612E-01   0.68755E-06
  40   40 O      17   -0.7575220    0.31903E-04   0.89408E-03   0.29823E-07
  41   41 O      17   -0.7575220    0.48434E-05   0.13574E-03   0.45277E-08
  42   42 O      17   -0.7575220    0.43093E-03   0.12077E-01   0.40284E-06
  43   43 O      17   -0.7575220    0.82227E-03   0.23044E-01   0.76867E-06
  44   44 O      17   -0.7575220   -0.16760E-05  -0.46971E-04  -0.15668E-08
  45   45 O      17   -0.7575220    0.94503E-04   0.26484E-02   0.88342E-07
  46   46 O      17   -0.7575220   -0.81306E-04  -0.22786E-02  -0.76006E-07
  47   47 O      17   -0.7575220   -0.22087E-04  -0.61900E-03  -0.20647E-07
  48   48 O      17   -0.7575220   -0.51675E-05  -0.14482E-03  -0.48306E-08
  49   49 O      17   -0.7575220   -0.58359E-02  -0.16355E+00  -0.54555E-05
  50   50 O      17   -0.7575220   -0.11373E-03  -0.31874E-02  -0.10632E-06
  51   51 O      17   -0.7575220   -0.13271E-03  -0.37192E-02  -0.12406E-06
  52   52 O      17   -0.7575220   -0.67584E-04  -0.18940E-02  -0.63178E-07
  53   53 O      17   -0.7575220    0.98752E-05   0.27675E-03   0.92314E-08
  54   54 O      17   -0.7575220    0.16187E-03   0.45364E-02   0.15132E-06
  55   55 O      17   -0.7575220   -0.32565E-03  -0.91264E-02  -0.30442E-06
  56   56 O      17   -0.7575220    0.17711E-03   0.49634E-02   0.16556E-06
  57   57 SI     29   -1.1106000    0.29368E-04   0.82303E-03   0.27453E-07
  58   58 SI     29   -1.1106000    0.27050E-02   0.75807E-01   0.25286E-05
  59   59 SI     29   -1.1106000    0.18434E-03   0.51660E-02   0.17232E-06
  60   60 SI     29   -1.1106000    0.20563E-04   0.57628E-03   0.19222E-07
  61   61 SI     29   -1.1106000    0.89542E-03   0.25094E-01   0.83705E-06
  62   62 SI     29   -1.1106000    0.30387E-03   0.85160E-02   0.28406E-06
  63   63 SI     29   -1.1106000    0.89409E-04   0.25057E-02   0.83581E-07
  64   64 SI     29   -1.1106000   -0.89698E-06  -0.25138E-04  -0.83851E-09
  65   65 SI     29   -1.1106000    0.26479E-04   0.74207E-03   0.24753E-07
  66   66 SI     29   -1.1106000    0.23222E-03   0.65078E-02   0.21708E-06
  67   67 SI     29   -1.1106000    0.26147E-03   0.73278E-02   0.24443E-06
  68   68 SI     29   -1.1106000    0.99570E-05   0.27904E-03   0.93079E-08
  69   69 SI     29   -1.1106000    0.26863E-04   0.75285E-03   0.25112E-07
  70   70 SI     29   -1.1106000    0.90866E-03   0.25465E-01   0.84943E-06
  71   71 SI     29   -1.1106000    0.94881E-05   0.26590E-03   0.88696E-08
  72   72 SI     29   -1.1106000    0.72996E-03   0.20457E-01   0.68237E-06
  73   73 SI     29   -1.1106000    0.11216E-03   0.31433E-02   0.10485E-06
  74   74 SI     29   -1.1106000    0.65031E-04   0.18225E-02   0.60791E-07
  75   75 SI     29   -1.1106000    0.52270E-04   0.14649E-02   0.48862E-07
  76   76 SI     29   -1.1106000    0.20405E-03   0.57185E-02   0.19075E-06
  77   77 SI     29   -1.1106000    0.34175E-03   0.95775E-02   0.31947E-06
  78   78 SI     29   -1.1106000    0.26890E-03   0.75360E-02   0.25137E-06
  79   79 SI     29   -1.1106000    0.17077E-03   0.47859E-02   0.15964E-06
  80   80 SI     29   -1.1106000    0.70940E-03   0.19881E-01   0.66316E-06
  81   81 SI     29   -1.1106000    0.11573E-03   0.32432E-02   0.10818E-06
  82   82 SI     29   -1.1106000    0.10474E-03   0.29353E-02   0.97912E-07
  83   83 SI     29   -1.1106000    0.74286E-03   0.20819E-01   0.69444E-06
  84   84 SI     29   -1.1106000    0.37905E-03   0.10623E-01   0.35434E-06
  85   85 SI     29   -1.1106000    0.73227E-04   0.20522E-02   0.68453E-07
  86   86 SI     29   -1.1106000    0.36741E-04   0.10297E-02   0.34346E-07
  87   87 SI     29   -1.1106000   -0.15364E-05  -0.43057E-04  -0.14362E-08
  88   88 SI     29   -1.1106000   -0.14151E-04  -0.39658E-03  -0.13228E-07
  89   89 SI     29   -1.1106000    0.78231E-04   0.21924E-02   0.73131E-07
  90   90 SI     29   -1.1106000    0.13822E-03   0.38735E-02   0.12921E-06
  91   91 SI     29   -1.1106000    0.71815E-05   0.20126E-03   0.67134E-08
  92   92 SI     29   -1.1106000    0.31850E-03   0.89258E-02   0.29773E-06
  93   93 SI     29   -1.1106000    0.65561E-04   0.18373E-02   0.61287E-07
  94   94 SI     29   -1.1106000    0.21125E-03   0.59202E-02   0.19748E-06
  95   95 SI     29   -1.1106000    0.55579E-04   0.15576E-02   0.51956E-07
  96   96 SI     29   -1.1106000    0.16866E-04   0.47267E-03   0.15767E-07
  97   97 SI     29   -1.1106000    0.83427E-04   0.23380E-02   0.77989E-07
  98   98 SI     29   -1.1106000    0.11026E-03   0.30901E-02   0.10308E-06
  99   99 SI     29   -1.1106000    0.49743E-05   0.13940E-03   0.46500E-08
 100  100 SI     29   -1.1106000   -0.15498E-05  -0.43434E-04  -0.14488E-08
 101  101 SI     29   -1.1106000    0.74379E-04   0.20845E-02   0.69531E-07
 102  102 SI     29   -1.1106000    0.14743E-03   0.41317E-02   0.13782E-06
 103  103 SI     29   -1.1106000    0.11696E-03   0.32778E-02   0.10934E-06
 104  104 SI     29   -1.1106000    0.85527E-04   0.23969E-02   0.79952E-07
 105  105 SI     29   -1.1106000    0.56134E-04   0.15731E-02   0.52475E-07
 106  106 SI     29   -1.1106000    0.87348E-04   0.24479E-02   0.81654E-07
 107  107 SI     29   -1.1106000    0.29198E-04   0.81829E-03   0.27295E-07
 108  108 SI     29   -1.1106000    0.26677E-06   0.74763E-05   0.24938E-09
 109  109 SI     29   -1.1106000    0.39892E-04   0.11180E-02   0.37291E-07
 110  110 SI     29   -1.1106000    0.14100E-04   0.39514E-03   0.13180E-07
 111  111 SI     29   -1.1106000    0.69531E-04   0.19486E-02   0.64999E-07
 112  112 SI     29   -1.1106000   -0.32173E-04  -0.90166E-03  -0.30076E-07
 113  113 SI     29   -1.1106000    0.28749E-05   0.80570E-04   0.26875E-08
 114  114 SI     29   -1.1106000    0.19584E-04   0.54883E-03   0.18307E-07
 115  115 SI     29   -1.1106000   -0.36346E-04  -0.10186E-02  -0.33977E-07
 116  116 SI     29   -1.1106000   -0.10122E-04  -0.28367E-03  -0.94622E-08
 117  117 SI     29   -1.1106000   -0.52225E-04  -0.14636E-02  -0.48821E-07
 118  118 SI     29   -1.1106000   -0.25822E-04  -0.72367E-03  -0.24139E-07
 119  119 SI     29   -1.1106000   -0.36400E-03  -0.10201E-01  -0.34028E-06
 120  120 SI     29   -1.1106000   -0.15232E-03  -0.42688E-02  -0.14239E-06
 121  121 SI     29   -1.1106000    0.23117E-04   0.64786E-03   0.21610E-07
 122  122 SI     29   -1.1106000   -0.48908E-04  -0.13706E-02  -0.45720E-07
 123  123 SI     29   -1.1106000   -0.99495E-04  -0.27883E-02  -0.93009E-07
 124  124 SI     29   -1.1106000   -0.10696E-04  -0.29976E-03  -0.99990E-08
 125  125 SI     29   -1.1106000    0.27390E-05   0.76760E-04   0.25604E-08
 126  126 SI     29   -1.1106000   -0.18555E-06  -0.52000E-05  -0.17345E-09
 127  127 SI     29   -1.1106000    0.83471E-04   0.23393E-02   0.78030E-07
 128  128 SI     29   -1.1106000    0.73913E-02   0.20714E+00   0.69094E-05
 129  129 SI     29   -1.1106000    0.25637E-03   0.71847E-02   0.23965E-06
 130  130 SI     29   -1.1106000   -0.18031E-04  -0.50531E-03  -0.16855E-07
 131  131 SI     29   -1.1106000    0.20198E-02   0.56606E-01   0.18882E-05
 132  132 SI     29   -1.1106000    0.58601E-05   0.16423E-03   0.54781E-08
 133  133 SI     29   -1.1106000    0.12267E-03   0.34379E-02   0.11468E-06
 134  134 SI     29   -1.1106000   -0.18650E-02  -0.52268E-01  -0.17435E-05
 135  135 SI     29   -1.1106000    0.27815E-02   0.77952E-01   0.26002E-05
 136  136 SI     29   -1.1106000    0.49553E-04   0.13887E-02   0.46323E-07
 137  137 SI     29   -1.1106000    0.36508E-04   0.10231E-02   0.34129E-07
 138  138 SI     29   -1.1106000    0.17159E-03   0.48088E-02   0.16040E-06
 139  139 SI     29   -1.1106000    0.51905E-03   0.14546E-01   0.48522E-06
 140  140 SI     29   -1.1106000    0.11776E-05   0.33002E-04   0.11008E-08
 141  141 SI     29   -1.1106000    0.67366E-03   0.18879E-01   0.62974E-06
 142  142 SI     29   -1.1106000   -0.28684E-02  -0.80385E-01  -0.26814E-05
 143  143 SI     29   -1.1106000   -0.73018E-04  -0.20463E-02  -0.68258E-07
 144  144 SI     29   -1.1106000    0.72701E-05   0.20374E-03   0.67962E-08
 145  145 SI     29   -1.1106000    0.13649E-04   0.38251E-03   0.12759E-07
 146  146 SI     29   -1.1106000    0.20246E-01   0.56739E+00   0.18926E-04
 147  147 SI     29   -1.1106000   -0.53774E-01  -0.15070E+01  -0.50269E-04
 148  148 SI     29   -1.1106000   -0.22067E-04  -0.61843E-03  -0.20629E-07

  CONVERSION FACTORS 
     AN (MILLI T)        28.554470 * GN * P(SPIN) (BOHR**(-3))
     AN (MHZ)            28.024940 * AN (MILLI T) 
     AN (CM**(-1))   0.3335641E-04 * AN (MHZ) 
 TTTTTTTTTTTTTTTTTTTTTTTTTTTTTT ISOTROPIC   TELAPSE    92905.95 TCPU    92749.55
 ENDPROP   
 TTTTTTTTTTTTTTTTTTTTTTTTTTTTTT END         TELAPSE    92905.95 TCPU    92749.55
 EEEEEEEEEE TERMINATION  DATE 13 05 2015 TIME 16:48:09.6
