
         
 *******************************************************************************
 *                                                                             *
 *                                CRYSTAL09                                    *
 *                              public : 2.0                                   *
 *                      December 10th, 2012 - sequential executable            *
 *                                                                             *
 *                                                                             *
 *                                                                             *
 *                              MAIN AUTHORS                                   *
 *                                                                             *
 *    R. DOVESI(1,10), V.R. SAUNDERS(2), C. ROETTI(1,10), R. ORLANDO (1,3),    *
 *  C.M. ZICOVICH-WILSON(1,4), F. PASCALE(5), B. CIVALLERI(1,10), K. DOLL(6),  *
 *       N.M. HARRISON(2,7), I. J. BUSH(2), Ph. D'ARCO(8), M. LLUNELL(9)       *
 *                                                                             *
 * (1) THEORETICAL CHEMISTRY GROUP - UNIVERSITA' DI TORINO - TORINO (ITALY)    *
 *      http://www.crystal.unito.it                                            *
 * (2) COMPUTATIONAL SCIENCE & ENGINEERING DEPARTMENT - CCLRC DARESBURY (UK)   *
 *     http://www.cse.clrc.ac.uk/cmg/CRYSTAL/                                  *
 * (3) UNIVERSITA' DEL PIEMONTE ORIENTALE - ALESSANDRIA (ITALY)                *
 * (4) UNIVERSIDAD AUTONOMA DEL ESTADO DE MORELOS - CUERNAVACA (MEXICO)        *
 * (5) UNIVERSITE' HENRI POINCARE' - NANCY (FRANCE)                            *
 * (6) MPI FUER FESTKOERPERFORSCHUNG - STUTTGART (GERMANY)                     *
 * (7) IMPERIAL COLLEGE - LONDON (UK)                                          *
 * (8) UNIVERSITE' PIERRE ET MARIE CURIE - PARIS (FRANCE)                      *
 * (9) UNIVERSIDAD DE BARCELONA - BARCELONA (SPAIN)                            *
 *(10) NIS - NANOSTRUCTURED INTERFACES AND SURFACES - TORINO (ITALY)           *
 *     http://www.crystal.unito.it                                             *
 *******************************************************************************
 EEEEEEEEEE STARTING  DATE 11 05 2015 TIME 10:56:14.6

 *******************************************************************************
 Created with astools                                                            
 CRYSTAL - PROPERTIES - TYPE OF CALCULATION :  UNRESTRICTED OPEN SHELL
 *******************************************************************************
 SPIN POLARIZED SYSTEM: SUMMED SPIN DENSITY   -2.00000000

 KOHN-SHAM HAMILTONIAN

 (EXCHANGE)[CORRELATION] FUNCTIONAL:(BECKE)[LEE-YANG-PARR]

 NON-LOCAL WEIGHTING FACTOR (EXCHANGE) =           0.9000
 NON-LOCAL WEIGHTING FACTOR [CORRELATION] =        0.8100

 HYBRID EXCHANGE - PERCENTAGE OF FOCK EXCHANGE     5.0000

 SPIN POLARIZED DFT SELECTED

 DIRECT LATTICE VECTOR COMPONENTS (ANGSTROM)
        10.85580    0.00000    0.00000
         0.00000   10.63740    0.00000
         0.00000    0.00000   21.98810

 LATTICE PARAMETERS  (ANGSTROM AND DEGREES) - PRIMITIVE CELL
       A          B          C         ALPHA      BETA     GAMMA        VOLUME
   10.85580   10.63740   21.98810     47.6259   47.6259   47.6259    2539.13053
 *******************************************************************************
 N. OF ATOMS PER CELL      156  COULOMB OVERLAP TOL         (T1) 10** -8
 NUMBER OF SHELLS          808  COULOMB PENETRATION TOL     (T2) 10** -8
 NUMBER OF AO             2856  EXCHANGE OVERLAP TOL        (T3) 10** -8
 N. OF ELECTRONS PER CELL 1800  EXCHANGE PSEUDO OVP (F(G))  (T4) 10** -8
 CORE ELECTRONS PER CELL  1048  EXCHANGE PSEUDO OVP (P(G))  (T5) 10**-16
 N. OF SYMMETRY OPERATORS    1  POLE ORDER IN MONO ZONE                4
 *******************************************************************************
   ATOM N.AT.  SHELL    X(A)      Y(A)      Z(A)      EXAD       N.ELECT.
 *******************************************************************************
    1    8 O     4     0.773     0.650     1.924   1.900E-01       8.650
    2    8 O     4     1.619    -3.718     0.740   1.900E-01       8.738
    3    8 O     4    -4.562     0.792     1.125   1.900E-01       8.739
    4    8 O     4    -4.553    -4.511     1.825   1.900E-01       8.609
    5    8 O     4    -4.918     4.071     0.011   1.900E-01       8.649
    6    8 O     4    -1.115    -3.899     0.113   1.900E-01       8.665
    7    8 O     4    -4.197    -1.690     0.390   1.900E-01       8.722
    8    8 O     4     1.964     4.592    -9.846   1.900E-01       8.639
    9    8 O     4     1.840    -0.548    -9.962   1.900E-01       8.657
   10    8 O     4    -4.015     4.594   -10.403   1.900E-01       8.734
   11    8 O     4    -3.440    -0.166   -10.021   1.900E-01       8.695
   12    8 O     4     5.390     3.088    -7.722   1.900E-01       8.755
   13    8 O     4    -2.690     4.111    -8.415   1.900E-01       8.660
   14    8 O     4    -4.910    -4.931    -8.398   1.900E-01       8.834
   15    8 O     4     5.131    -3.092    -9.563   1.900E-01       8.741
   16    8 O     4     3.714     2.555    -9.525   1.900E-01       8.639
   17    8 O     4    -2.876     2.311   -10.374   1.900E-01       8.798
   18    8 O     4    -0.212     1.296    -9.067   1.900E-01       8.683
   19    8 O     4     0.665    -4.019    -8.798   1.900E-01       8.650
   20    8 O     4    -1.053    -0.695    -7.817   1.900E-01       8.685
   21    8 O     4    -2.895    -2.210    -8.534   1.900E-01       8.763
   22    8 O     4     3.807     0.632    -7.818   1.900E-01       8.696
   23    8 O     4     2.432    -1.509    -3.470   1.900E-01       8.660
   24    8 O     4     2.732     3.097    -7.109   1.900E-01       8.652
   25    8 O     4     1.802     2.692    -2.403   1.900E-01       8.582
   26    8 O     4     1.960    -5.109    -6.659   1.900E-01       8.665
   27    8 O     4    -1.053     4.033    -0.113   1.900E-01       8.693
   28    8 O     4     3.517     0.856    -3.168   1.900E-01       8.588
   29    8 O     4    -4.170     1.876    -5.403   1.900E-01       8.653
   30    8 O     4     2.195    -3.907    -1.657   1.900E-01       8.643
   31    8 O     4    -2.436     0.733    -3.812   1.900E-01       8.657
   32    8 O     4     4.703     4.600    -2.290   1.900E-01       8.610
   33    8 O     4     2.537     4.999    -3.714   1.900E-01       8.818
   34    8 O     4     0.184    -1.473    -5.244   1.900E-01       8.509
   35    8 O     4     0.081    -1.436    -0.064   1.900E-01       8.705
   36    8 O     4     1.102     0.838    -6.825   1.900E-01       8.605
   37    8 O     4    -1.451     4.953    -4.678   1.900E-01       8.671
   38    8 O     4     4.267    -3.895    -3.804   1.900E-01       8.623
   39    8 O     4    -1.831    -2.788    -4.031   1.900E-01       8.474
   40    8 O     4     5.274    -0.201    -1.149   1.900E-01       8.676
   41    8 O     4     5.035    -1.250    -3.942   1.900E-01       8.624
   42    8 O     4    -4.907    -2.718    -2.105   1.900E-01       8.616
   43    8 O     4    -0.926     0.942    -1.285   1.900E-01       8.772
   44    8 O     4    -3.481     1.621    -1.426   1.900E-01       8.650
   45    8 O     4    -0.257    -3.858    -6.350   1.900E-01       8.841
   46    8 O     4     0.123    -0.883    -2.638   1.900E-01       8.552
   47    8 O     4     1.825     0.484    -1.022   1.900E-01       8.661
   48    8 O     4     3.609     5.268    -0.022   1.900E-01       8.680
   49    8 O     4     0.409     4.860    -2.757   1.900E-01       8.523
   50    8 O     4     1.195     3.244    -5.002   1.900E-01       8.503
   51    8 O     4    -1.446     2.972    -2.834   1.900E-01       8.708
   52    8 O     4    -1.577     1.420    -6.406   1.900E-01       8.652
   53    8 O     4     3.215    -0.334    -5.590   1.900E-01       8.577
   54    8 O     4     4.860     4.067    -4.835   1.900E-01       8.608
   55    8 O     4     4.674    -1.747    -7.366   1.900E-01       8.635
   56    8 O     4    -0.137     4.074    -6.962   1.900E-01       8.617
   57    8 O     4    -3.665     3.902    -3.694   1.900E-01       8.659
   58    8 O     4     2.166    -2.340    -7.232   1.900E-01       8.750
   59    8 O     4    -4.377    -3.343    -4.979   1.900E-01       8.619
   60    8 O     4    -2.318    -5.267    -1.946   1.900E-01       8.602
   61    8 O     4     0.778    -3.384    -3.745   1.900E-01       8.559
   62    8 O     4    -3.800     4.386    -6.252   1.900E-01       8.615
   63    8 O     4     4.034    -2.559    -0.279   1.900E-01       8.661
   64    8 O     4     3.948     2.482    -1.068   1.900E-01       8.738
   65   14 SI    6     1.294    -5.144     2.459   6.000E-01      13.792
   66   14 SI    6     4.713     2.014     1.883   6.000E-01      13.798
   67   14 SI    6     0.598     3.423     3.368   6.000E-01      14.076
   68   14 SI    6     3.504     0.723     3.461   6.000E-01      14.149
   69   14 SI    6     2.048     2.121     4.680   6.000E-01      13.987
   70   14 SI    6     4.816     4.626     4.715   6.000E-01      13.993
   71   14 SI    6     1.823    -0.535     2.359   6.000E-01      13.469
   72   14 SI    6     5.054    -3.556     2.337   6.000E-01      13.573
   73   14 SI    6     0.357    -2.354     3.249   6.000E-01      14.129
   74   14 SI    6     3.367    -4.676     3.454   6.000E-01      14.089
   75   14 SI    6     2.034    -3.233     4.749   6.000E-01      14.023
   76   14 SI    6     4.684    -0.601     4.939   6.000E-01      14.000
   77   14 SI    6    -3.912     4.724     1.214   6.000E-01      13.387
   78   14 SI    6    -0.501     1.743     2.131   6.000E-01      13.758
   79   14 SI    6    -4.692     3.321     3.204   6.000E-01      14.051
   80   14 SI    6    -2.178     0.499     3.172   6.000E-01      14.043
   81   14 SI    6    -3.388     2.002     4.628   6.000E-01      13.998
   82   14 SI    6    -0.764     4.775     4.749   6.000E-01      14.059
   83   14 SI    6    -3.903    -0.682     1.745   6.000E-01      13.258
   84   14 SI    6     0.004    -2.879     0.858   6.000E-01      12.998
   85   14 SI    6    -4.817    -1.868     3.538   6.000E-01      14.113
   86   14 SI    6    -1.401    -4.005     3.493   6.000E-01      13.942
   87   14 SI    6    -3.267    -3.214     4.705   6.000E-01      14.005
   88   14 SI    6    -0.710    -0.650     4.624   6.000E-01      14.021
   89   14 SI    6     0.653     0.737     6.002   6.000E-01      13.994
   90   14 SI    6     3.357     3.391     6.132   6.000E-01      13.981
   91   14 SI    6     0.659    -4.601     6.117   6.000E-01      13.996
   92   14 SI    6     3.304    -1.938     6.239   6.000E-01      13.996
   93   14 SI    6    -4.738     0.773     6.156   6.000E-01      13.993
   94   14 SI    6    -2.117     3.386     6.096   6.000E-01      13.995
   95   14 SI    6    -4.694    -4.568     6.032   6.000E-01      13.999
   96   14 SI    6    -2.015    -1.892     6.159   6.000E-01      14.008
   97   14 SI    6     2.972    -3.848    -0.232   6.000E-01      12.660
   98   14 SI    6     0.045     2.846     0.117   6.000E-01      13.425
   99   14 SI    6     1.932     4.693     7.522   6.000E-01      13.992
  100   14 SI    6     4.690     2.070     7.512   6.000E-01      14.012
  101   14 SI    6     0.465     3.384     8.886   6.000E-01      14.013
  102   14 SI    6     3.277     0.742     8.843   6.000E-01      14.044
  103   14 SI    6     1.774     1.981    10.164   6.000E-01      14.114
  104   14 SI    6     4.556     4.790    10.263   6.000E-01      14.009
  105   14 SI    6     1.880    -0.607     7.534   6.000E-01      13.988
  106   14 SI    6     4.744    -3.311     7.448   6.000E-01      13.990
  107   14 SI    6     0.581    -1.978     8.991   6.000E-01      14.019
  108   14 SI    6     3.330    -4.584     8.796   6.000E-01      14.038
  109   14 SI    6     2.080    -3.262    10.273   6.000E-01      14.088
  110   14 SI    6     4.723    -0.480    10.178   6.000E-01      13.932
  111   14 SI    6    -3.435     4.751     7.537   6.000E-01      14.003
  112   14 SI    6    -0.750     2.024     7.417   6.000E-01      13.997
  113   14 SI    6    -4.880     3.477     8.906   6.000E-01      14.001
  114   14 SI    6    -1.974     0.619     8.881   6.000E-01      14.057
  115   14 SI    6    -3.545     1.893     9.975   6.000E-01      13.603
  116   14 SI    6    -0.791     4.791    10.449   6.000E-01      14.090
  117   14 SI    6    -3.424    -0.613     7.531   6.000E-01      13.994
  118   14 SI    6    -0.696    -3.280     7.526   6.000E-01      13.979
  119   14 SI    6    -4.838    -1.948     8.885   6.000E-01      14.015
  120   14 SI    6    -2.093    -4.515     8.979   6.000E-01      14.001
  121   14 SI    6    -3.565    -3.251    10.371   6.000E-01      14.067
  122   14 SI    6    -0.838    -0.763    10.446   6.000E-01      14.076
  123   14 SI    6     0.623     0.558   -10.314   6.000E-01      13.206
  124   14 SI    6     2.976     3.511   -10.619   6.000E-01      13.300
  125   14 SI    6     0.979    -4.774   -10.251   6.000E-01      13.273
  126   14 SI    6     3.120    -1.551   -10.397   6.000E-01      13.483
  127   14 SI    6    -3.309     1.130    -9.023   6.000E-01      13.108
  128   14 SI    6    -2.541     4.002   -10.068   6.000E-01      13.040
  129   14 SI    6    -4.982    -4.571   -10.249   6.000E-01      13.162
  130   14 SI    6    -2.638    -1.647   -10.154   6.000E-01      13.235
  131   14 SI    6     3.891     2.278    -7.945   6.000E-01      12.564
  132   14 SI    6    -4.280     4.275    -7.801   6.000E-01      12.670
  133   14 SI    6    -5.239    -2.941    -7.966   6.000E-01      12.839
  134   14 SI    6    -2.325    -1.449    -7.065   6.000E-01      13.379
  135   14 SI    6     2.815     1.530    -1.863   6.000E-01      12.675
  136   14 SI    6    -1.987    -5.276    -0.306   6.000E-01      12.933
  137   14 SI    6     3.600    -0.545    -4.048   6.000E-01      12.810
  138   14 SI    6    -2.842     0.779    -5.488   6.000E-01      13.009
  139   14 SI    6    -0.339     0.761    -7.412   6.000E-01      12.922
  140   14 SI    6     1.456    -4.514    -2.904   6.000E-01      12.785
  141   14 SI    6     1.257    -3.723    -7.280   6.000E-01      12.632
  142   14 SI    6    -1.153    -2.517    -5.391   6.000E-01      13.262
  143   14 SI    6    -5.253    -2.811    -3.798   6.000E-01      12.913
  144   14 SI    6    -2.117     1.518    -2.401   6.000E-01      12.643
  145   14 SI    6     4.509     4.080    -0.771   6.000E-01      12.630
  146   14 SI    6     1.338     3.719    -3.500   6.000E-01      12.888
  147   14 SI    6     0.856    -1.737    -3.790   6.000E-01      12.916
  148   14 SI    6    -4.845     1.180    -0.553   6.000E-01      12.945
  149   14 SI    6    -4.436     3.471    -5.053   6.000E-01      12.815
  150   14 SI    6    -1.205     5.178    -6.292   6.000E-01      12.827
  151   14 SI    6     3.282    -0.857    -7.113   6.000E-01      12.578
  152   14 SI    6     0.295    -0.231    -1.178   6.000E-01      12.631
  153   14 SI    6     1.465     3.918    -6.512   6.000E-01      12.698
  154   14 SI    6    -5.362    -1.827    -0.824   6.000E-01      12.715
  155   14 SI    6     4.273     5.141    -3.743   6.000E-01      12.717
  156   14 SI    6    -2.166     4.415    -3.280   6.000E-01      12.611
 *******************************************************************************
 DE(K)                   0.000E+00  ENERGY LEVEL SHIFTING        0.00000
 TOTAL ENERGY -3.1446857269310E+04  CONVERGENCE ON ENER        3.102E-05
 KIN. ENERGY   3.1334429251737E+04  VIR. COEFF.           1.03708466E+00
 N. OF SCF CYCLES              147  FERMI ENERGY              -0.983E-01
 WEIGHT OF F(I) IN F(I+1)      95
 SHRINK. FACT.(MONKH.)     2  2  2  SHRINKING FACTOR(GILAT NET)        2
 NUMBER OF K POINTS IN THE IBZ   8  CELL VOLUME (A.U.)       17134.90240
 *******************************************************************************

 GCALCO - MAX INDICES DIRECT LATTICE VECTOR    18    19     9
 NO.OF VECTORS CREATED 6999 STARS 1061 RMAX   305.16670 BOHR

 DIMENSIONS  P(G)= 6626060 F(G)= 1182186 P(G),F(G) (IRR) 3321682
 MAX G-VECTOR INDEX FOR 1- AND 2-ELECTRON INTEGRALS  65


 CAPPA:IS1  2;IS2  2;IS3  2; K PTS MONK NET    8; SYMMOPS: K SPACE  2;G SPACE  1


 CAPPA:IS1  6;IS2  6;IS3  3; K PTS MONK NET   56; SYMMOPS: K SPACE  2;G SPACE  1

 *******************************************************************************
 RESTART WITH NEW K POINTS NET
 *******************************************************************************
 POINTS IN THE IBZ                  56 POINTS(GILAT NET)                56
 SHRINK FACTORS(MONK.)         6  6  3 SHRINK FACTOR(GILAT)              6
 *******************************************************************************
 *** K POINTS COORDINATES (OBLIQUE COORDINATES IN UNITS OF IS =  6)
   1-R(  0  0  0)   2-C(  1  0  0)   3-C(  2  0  0)   4-R(  3  0  0)
   5-C(  0  1  0)   6-C(  1  1  0)   7-C(  2  1  0)   8-C(  3  1  0)
   9-C(  4  1  0)  10-C(  5  1  0)  11-C(  0  2  0)  12-C(  1  2  0)
  13-C(  2  2  0)  14-C(  3  2  0)  15-C(  4  2  0)  16-C(  5  2  0)
  17-R(  0  3  0)  18-C(  1  3  0)  19-C(  2  3  0)  20-R(  3  3  0)
  21-C(  0  0  1)  22-C(  1  0  1)  23-C(  2  0  1)  24-C(  3  0  1)
  25-C(  4  0  1)  26-C(  5  0  1)  27-C(  0  1  1)  28-C(  1  1  1)
  29-C(  2  1  1)  30-C(  3  1  1)  31-C(  4  1  1)  32-C(  5  1  1)
  33-C(  0  2  1)  34-C(  1  2  1)  35-C(  2  2  1)  36-C(  3  2  1)
  37-C(  4  2  1)  38-C(  5  2  1)  39-C(  0  3  1)  40-C(  1  3  1)
  41-C(  2  3  1)  42-C(  3  3  1)  43-C(  4  3  1)  44-C(  5  3  1)
  45-C(  0  4  1)  46-C(  1  4  1)  47-C(  2  4  1)  48-C(  3  4  1)
  49-C(  4  4  1)  50-C(  5  4  1)  51-C(  0  5  1)  52-C(  1  5  1)
  53-C(  2  5  1)  54-C(  3  5  1)  55-C(  4  5  1)  56-C(  5  5  1)

 FERMI ENERGY AND DENSITY MATRIX CALCULATION ON COMPUTED EIGENVECTORS
 DENSITY MATRIX AT SCF CYCLE (147+1)


    ALPHA      ELECTRONS
 INSULATING STATE
 TOP OF VALENCE BANDS -    BAND    899; K   33; EIG -1.0491470E-01 AU
 TOP OF VALENCE BANDS -    BAND    899; K    1; EIG -1.0709513E-01 AU
 BOTTOM OF VIRTUAL BANDS - BAND    900; K    1; EIG -9.0244271E-02 AU

    BETA       ELECTRONS
 INSULATING STATE
 TOP OF VALENCE BANDS -    BAND    901; K   24; EIG -9.8685314E-02 AU
 TOP OF VALENCE BANDS -    BAND    901; K    1; EIG -7.9913423E-02 AU
 BOTTOM OF VIRTUAL BANDS - BAND    902; K   42; EIG -8.8236427E-02 AU
 BOTTOM OF VIRTUAL BANDS - BAND    902; K    1; EIG -7.8786994E-02 AU

 CORE DENSITY MATRIX CALCULATION
 TTTTTTTTTTTTTTTTTTTTTTTTTTTTTT NEWK        TELAPSE   116189.42 TCPU   116002.73
 TTTTTTTTTTTTTTTTTTTTTTTTTTTTTT SETPRINT    TELAPSE   116189.42 TCPU   116002.73

 *******************************************************************************
 HYPERFINE ELECTRON-NUCLEAR SPIN INTERACTION TENSOR
 ANISOTROPIC COMPONENTS - THE TENSOR IS TRACELESS
 *******************************************************************************


 POINT   ATOM  MASS NO  NUCLEAR G FACTOR
    1    1 O      17      -0.7575220

 TENSOR IN ORIGINAL CARTESIAN AXES
 XX  1.486819E-03 YY -1.373728E-03 ZZ -1.130913E-04 XY  1.612049E-03 XZ -5.875455E-03 YZ -5.174526E-03

 TENSOR IN PRINCIPAL AXIS SYSTEM
 AA  8.830220E-03 BB -1.681783E-03 CC -7.148438E-03

 PRINCIPAL AXES
         X             Y             Z
 A  6.195898E-01  4.306649E-01 -6.562288E-01
 B -6.764134E-01  7.170975E-01 -1.680360E-01
 C  3.982128E-01  5.479953E-01  7.356138E-01

 ANGLES BETWEEN PRINCIPAL AXES AND ORIGINAL AXES (DEGREES)
         X             Y             Z
 A     51.713816     64.490236    131.012891
 B    132.564003     44.184637     99.673649
 C     66.533499     56.770407     42.640894


 POINT   ATOM  MASS NO  NUCLEAR G FACTOR
    2    2 O      17      -0.7575220

 TENSOR IN ORIGINAL CARTESIAN AXES
 XX -7.951202E-03 YY -1.262629E-02 ZZ  2.057749E-02 XY -1.192148E-02 XZ  1.910462E-03 YZ  1.539757E-02

 TENSOR IN PRINCIPAL AXIS SYSTEM
 AA -5.260238E-04 BB -2.630178E-02 CC  2.682781E-02

 PRINCIPAL AXES
         X             Y             Z
 A  8.357249E-01 -4.768875E-01  2.722906E-01
 B  5.431542E-01  7.908937E-01 -2.819054E-01
 C -8.091578E-02  3.834911E-01  9.199930E-01

 ANGLES BETWEEN PRINCIPAL AXES AND ORIGINAL AXES (DEGREES)
         X             Y             Z
 A     33.308601    118.482315     74.199384
 B     57.101383     37.730889    106.373956
 C     94.641207     67.449901     23.074935


 POINT   ATOM  MASS NO  NUCLEAR G FACTOR
    3    3 O      17      -0.7575220

 TENSOR IN ORIGINAL CARTESIAN AXES
 XX  5.783067E-02 YY -2.632134E-03 ZZ -5.519854E-02 XY  3.782539E-02 XZ -6.374974E-02 YZ  8.051453E-02

 TENSOR IN PRINCIPAL AXIS SYSTEM
 AA  8.655961E-02 BB  5.448036E-02 CC -1.410400E-01

 PRINCIPAL AXES
         X             Y             Z
 A  9.186078E-01  3.418494E-02 -3.936890E-01
 B  1.866685E-01  8.405561E-01  5.085473E-01
 C  3.483023E-01 -5.406449E-01  7.657601E-01

 ANGLES BETWEEN PRINCIPAL AXES AND ORIGINAL AXES (DEGREES)
         X             Y             Z
 A     23.276602     88.040965    113.184236
 B     79.241576     32.801114     59.432885
 C     69.616486    122.727549     40.025335


 POINT   ATOM  MASS NO  NUCLEAR G FACTOR
    4    4 O      17      -0.7575220

 TENSOR IN ORIGINAL CARTESIAN AXES
 XX  7.221001E-02 YY  1.881227E-02 ZZ -9.102228E-02 XY  6.596040E-02 XZ -7.928574E-02 YZ  1.132574E-01

 TENSOR IN PRINCIPAL AXIS SYSTEM
 AA  1.167512E-01 BB  8.363753E-02 CC -2.003887E-01

 PRINCIPAL AXES
         X             Y             Z
 A  8.463187E-01  5.316442E-01 -3.315327E-02
 B -4.000061E-01  6.753998E-01  6.195404E-01
 C  3.517667E-01 -5.110671E-01  7.842644E-01

 ANGLES BETWEEN PRINCIPAL AXES AND ORIGINAL AXES (DEGREES)
         X             Y             Z
 A     32.186502     57.883386     91.899890
 B    113.578557     47.514795     51.717424
 C     69.404585    120.734933     38.347307


 POINT   ATOM  MASS NO  NUCLEAR G FACTOR
    5    5 O      17      -0.7575220

 TENSOR IN ORIGINAL CARTESIAN AXES
 XX  2.974678E-02 YY -6.315924E-02 ZZ  3.341245E-02 XY  3.537724E-02 XZ  9.508314E-03 YZ -3.146892E-02

 TENSOR IN PRINCIPAL AXIS SYSTEM
 AA  4.102654E-02 BB -8.427096E-02 CC  4.324442E-02

 PRINCIPAL AXES
         X             Y             Z
 A  8.419910E-01  1.275761E-01  5.241902E-01
 B -3.058109E-01  9.133207E-01  2.689330E-01
 C -4.444444E-01 -3.867423E-01  8.080220E-01

 ANGLES BETWEEN PRINCIPAL AXES AND ORIGINAL AXES (DEGREES)
         X             Y             Z
 A     32.649030     82.670451     58.386253
 B    107.806954     24.031639     74.399214
 C    116.387795    112.751946     36.096873


 POINT   ATOM  MASS NO  NUCLEAR G FACTOR
    6    6 O      17      -0.7575220

 TENSOR IN ORIGINAL CARTESIAN AXES
 XX -4.252544E-02 YY -4.143465E-02 ZZ  8.396010E-02 XY  1.243614E-03 XZ -1.965463E-02 YZ  4.343450E-03

 TENSOR IN PRINCIPAL AXIS SYSTEM
 AA -4.626220E-02 BB -4.081297E-02 CC  8.707517E-02

 PRINCIPAL AXES
         X             Y             Z
 A  9.161067E-01 -3.715501E-01  1.506620E-01
 B  3.719932E-01  9.278629E-01  2.629783E-02
 C -1.495646E-01  3.195359E-02  9.882355E-01

 ANGLES BETWEEN PRINCIPAL AXES AND ORIGINAL AXES (DEGREES)
         X             Y             Z
 A     23.636612    111.811246     81.334710
 B     68.161407     21.895910     88.493071
 C     98.601695     88.168882      8.797334


 POINT   ATOM  MASS NO  NUCLEAR G FACTOR
    7    7 O      17      -0.7575220

 TENSOR IN ORIGINAL CARTESIAN AXES
 XX -8.090382E-03 YY -1.039001E-02 ZZ  1.848039E-02 XY  2.621266E-04 XZ  7.784962E-04 YZ  1.279197E-02

 TENSOR IN PRINCIPAL AXIS SYSTEM
 AA -8.111675E-03 BB -1.524249E-02 CC  2.335417E-02

 PRINCIPAL AXES
         X             Y             Z
 A  9.996500E-01 -1.332154E-02 -2.285688E-02
 B  4.347987E-03  9.349505E-01 -3.547515E-01
 C  2.609589E-02  3.545280E-01  9.346812E-01

 ANGLES BETWEEN PRINCIPAL AXES AND ORIGINAL AXES (DEGREES)
         X             Y             Z
 A      1.515973     90.763290     91.309717
 B     89.750878     20.779849    110.778217
 C     88.504646     69.235482     20.823301


 POINT   ATOM  MASS NO  NUCLEAR G FACTOR
    8    8 O      17      -0.7575220

 TENSOR IN ORIGINAL CARTESIAN AXES
 XX -2.112907E-03 YY  3.613511E-03 ZZ -1.500604E-03 XY -1.696221E-05 XZ  1.537915E-03 YZ -1.333416E-03

 TENSOR IN PRINCIPAL AXIS SYSTEM
 AA -3.477485E-03 BB  3.965987E-03 CC -4.885024E-04

 PRINCIPAL AXES
         X             Y             Z
 A  7.417255E-01 -1.222347E-01 -6.594709E-01
 B -6.700082E-02  9.648303E-01 -2.541916E-01
 C  6.673486E-01  2.327255E-01  7.074494E-01

 ANGLES BETWEEN PRINCIPAL AXES AND ORIGINAL AXES (DEGREES)
         X             Y             Z
 A     42.121388     97.021094    131.259536
 B     93.841742     15.240637    104.725692
 C     48.137244     76.542412     44.972229


 POINT   ATOM  MASS NO  NUCLEAR G FACTOR
    9    9 O      17      -0.7575220

 TENSOR IN ORIGINAL CARTESIAN AXES
 XX -3.135641E-02 YY -6.389266E-02 ZZ  9.524908E-02 XY -5.966021E-02 XZ  1.180206E-01 YZ -8.984664E-02

 TENSOR IN PRINCIPAL AXIS SYSTEM
 AA -9.902896E-02 BB -1.094651E-01 CC  2.084941E-01

 PRINCIPAL AXES
         X             Y             Z
 A  6.231406E-01 -4.934868E-01 -6.067673E-01
 B  6.154546E-01  7.881218E-01 -8.920881E-03
 C  4.826089E-01 -3.678788E-01  7.948295E-01

 ANGLES BETWEEN PRINCIPAL AXES AND ORIGINAL AXES (DEGREES)
         X             Y             Z
 A     51.454155    119.570016    127.356122
 B     52.015037     37.989662     90.511136
 C     61.144069    111.584855     37.360849


 POINT   ATOM  MASS NO  NUCLEAR G FACTOR
   10   10 O      17      -0.7575220

 TENSOR IN ORIGINAL CARTESIAN AXES
 XX  2.083226E-02 YY  1.802252E-02 ZZ -3.885479E-02 XY  4.717999E-04 XZ  4.436374E-03 YZ  7.313741E-03

 TENSOR IN PRINCIPAL AXIS SYSTEM
 AA  2.154432E-02 BB  1.854543E-02 CC -4.008975E-02

 PRINCIPAL AXES
         X             Y             Z
 A  9.281362E-01  3.552465E-01  1.111894E-01
 B -3.653849E-01  9.265136E-01  8.981317E-02
 C -7.111268E-02 -1.239858E-01  9.897325E-01

 ANGLES BETWEEN PRINCIPAL AXES AND ORIGINAL AXES (DEGREES)
         X             Y             Z
 A     21.853876     69.191446     83.616116
 B    111.431275     22.102290     84.847141
 C     94.077898     97.122190      8.217531


 POINT   ATOM  MASS NO  NUCLEAR G FACTOR
   11   11 O      17      -0.7575220

 TENSOR IN ORIGINAL CARTESIAN AXES
 XX  3.211921E-03 YY -1.039337E-03 ZZ -2.172585E-03 XY -1.522301E-03 XZ  1.882979E-03 YZ  5.409820E-04

 TENSOR IN PRINCIPAL AXIS SYSTEM
 AA  4.135137E-03 BB -8.887787E-04 CC -3.246358E-03

 PRINCIPAL AXES
         X             Y             Z
 A  9.339426E-01 -2.478348E-01  2.575446E-01
 B  9.159736E-02  8.624549E-01  4.977765E-01
 C -3.454869E-01 -4.413042E-01  8.281844E-01

 ANGLES BETWEEN PRINCIPAL AXES AND ORIGINAL AXES (DEGREES)
         X             Y             Z
 A     20.942026    104.349422     75.075583
 B     84.744491     30.406650     60.146998
 C    110.211523    116.187126     34.087321


 POINT   ATOM  MASS NO  NUCLEAR G FACTOR
   12   12 O      17      -0.7575220

 TENSOR IN ORIGINAL CARTESIAN AXES
 XX -1.954956E-04 YY -1.947429E-03 ZZ  2.142924E-03 XY -5.458541E-03 XZ -3.885347E-03 YZ  3.397661E-03

 TENSOR IN PRINCIPAL AXIS SYSTEM
 AA  8.589112E-03 BB -6.600520E-03 CC -1.988591E-03

 PRINCIPAL AXES
         X             Y             Z
 A  5.923513E-01 -5.084152E-01 -6.250071E-01
 B  6.449552E-01  7.641504E-01 -1.034493E-02
 C  4.828589E-01 -3.969737E-01  7.805505E-01

 ANGLES BETWEEN PRINCIPAL AXES AND ORIGINAL AXES (DEGREES)
         X             Y             Z
 A     53.675956    120.558326    128.682708
 B     49.837687     40.168533     90.592731
 C     61.127709    113.389126     38.688991


 POINT   ATOM  MASS NO  NUCLEAR G FACTOR
   13   13 O      17      -0.7575220

 TENSOR IN ORIGINAL CARTESIAN AXES
 XX  7.029181E-03 YY  8.103352E-03 ZZ -1.513253E-02 XY -4.803374E-02 XZ -5.953772E-02 YZ -6.269998E-02

 TENSOR IN PRINCIPAL AXIS SYSTEM
 AA -1.151649E-01 BB  5.474025E-02 CC  6.042470E-02

 PRINCIPAL AXES
         X             Y             Z
 A  5.306094E-01  5.393527E-01  6.538749E-01
 B -8.345323E-01  4.674448E-01  2.916354E-01
 C -1.483561E-01 -7.004242E-01  6.981379E-01

 ANGLES BETWEEN PRINCIPAL AXES AND ORIGINAL AXES (DEGREES)
         X             Y             Z
 A     57.953363     57.360413     49.165609
 B    146.567170     62.131439     73.044112
 C     98.531671    134.461044     45.722205


 POINT   ATOM  MASS NO  NUCLEAR G FACTOR
   14   14 O      17      -0.7575220

 TENSOR IN ORIGINAL CARTESIAN AXES
 XX  1.297399E-01 YY -1.003875E-01 ZZ -2.935237E-02 XY -2.825507E-03 XZ -8.877955E-03 YZ -1.976252E-01

 TENSOR IN PRINCIPAL AXIS SYSTEM
 AA  1.270742E-01 BB -2.658177E-01 CC  1.387435E-01

 PRINCIPAL AXES
         X             Y             Z
 A  8.705577E-01 -3.288455E-01  3.660464E-01
 B  1.987719E-02  7.667907E-01  6.415893E-01
 C -4.916648E-01 -5.512645E-01  6.740721E-01

 ANGLES BETWEEN PRINCIPAL AXES AND ORIGINAL AXES (DEGREES)
         X             Y             Z
 A     29.476492    109.198719     68.528005
 B     88.861046     39.933431     50.089567
 C    119.450062    123.453807     47.617866


 POINT   ATOM  MASS NO  NUCLEAR G FACTOR
   15   15 O      17      -0.7575220

 TENSOR IN ORIGINAL CARTESIAN AXES
 XX  4.298074E-02 YY  1.083656E-01 ZZ -1.513463E-01 XY -3.845355E-02 XZ -1.734334E-01 YZ  6.210022E-03

 TENSOR IN PRINCIPAL AXIS SYSTEM
 AA  1.672083E-01 BB  8.632374E-02 CC -2.535321E-01

 PRINCIPAL AXES
         X             Y             Z
 A  7.413978E-01 -5.281866E-01 -4.139422E-01
 B  4.381505E-01  8.482209E-01 -2.975658E-01
 C  5.082847E-01  3.924564E-02  8.602944E-01

 ANGLES BETWEEN PRINCIPAL AXES AND ORIGINAL AXES (DEGREES)
         X             Y             Z
 A     42.149374    121.883013    114.452721
 B     64.014062     31.981312    107.311459
 C     59.450356     87.750813     30.650348


 POINT   ATOM  MASS NO  NUCLEAR G FACTOR
   16   16 O      17      -0.7575220

 TENSOR IN ORIGINAL CARTESIAN AXES
 XX -1.291418E-03 YY  1.014864E-03 ZZ  2.765543E-04 XY -1.104364E-03 XZ -4.438751E-04 YZ -9.232622E-04

 TENSOR IN PRINCIPAL AXIS SYSTEM
 AA -2.001957E-03 BB  1.807378E-03 CC  1.945793E-04

 PRINCIPAL AXES
         X             Y             Z
 A  8.483142E-01  4.122378E-01  3.322996E-01
 B -2.423318E-01  8.602660E-01 -4.485730E-01
 C -4.707848E-01  3.000041E-01  8.296742E-01

 ANGLES BETWEEN PRINCIPAL AXES AND ORIGINAL AXES (DEGREES)
         X             Y             Z
 A     31.971215     65.654515     70.591589
 B    104.024206     30.653538    116.652164
 C    118.085249     72.542153     33.934716


 POINT   ATOM  MASS NO  NUCLEAR G FACTOR
   17   17 O      17      -0.7575220

 TENSOR IN ORIGINAL CARTESIAN AXES
 XX  3.086737E-03 YY -3.016290E-03 ZZ -7.044683E-05 XY  2.736296E-03 XZ -4.193192E-04 YZ -2.244375E-03

 TENSOR IN PRINCIPAL AXIS SYSTEM
 AA  4.480809E-03 BB -4.878127E-03 CC  3.973180E-04

 PRINCIPAL AXES
         X             Y             Z
 A  8.723646E-01  4.017692E-01 -2.784988E-01
 B -2.815542E-01  8.786477E-01  3.856234E-01
 C  3.996339E-01 -2.579917E-01  8.796210E-01

 ANGLES BETWEEN PRINCIPAL AXES AND ORIGINAL AXES (DEGREES)
         X             Y             Z
 A     29.265407     66.311176    106.170628
 B    106.352986     28.520333     67.317553
 C     66.444706    104.950929     28.403326


 POINT   ATOM  MASS NO  NUCLEAR G FACTOR
   18   18 O      17      -0.7575220

 TENSOR IN ORIGINAL CARTESIAN AXES
 XX  2.318373E-04 YY -3.276127E-03 ZZ  3.044290E-03 XY -4.210214E-04 XZ  2.263955E-03 YZ -1.219329E-03

 TENSOR IN PRINCIPAL AXIS SYSTEM
 AA -1.007463E-03 BB -3.503201E-03 CC  4.510664E-03

 PRINCIPAL AXES
         X             Y             Z
 A  8.805753E-01  8.696479E-02 -4.658587E-01
 B -1.969291E-04  9.830856E-01  1.831466E-01
 C  4.739063E-01 -1.611826E-01  8.656980E-01

 ANGLES BETWEEN PRINCIPAL AXES AND ORIGINAL AXES (DEGREES)
         X             Y             Z
 A     28.288165     85.010982    117.765810
 B     90.011283     10.553099     79.446908
 C     61.711838     99.275545     30.037498


 POINT   ATOM  MASS NO  NUCLEAR G FACTOR
   19   19 O      17      -0.7575220

 TENSOR IN ORIGINAL CARTESIAN AXES
 XX -3.980658E-03 YY  3.442436E-03 ZZ  5.382219E-04 XY  1.119461E-03 XZ  5.398444E-03 YZ  2.380858E-03

 TENSOR IN PRINCIPAL AXIS SYSTEM
 AA -7.587759E-03 BB  1.171447E-03 CC  6.416312E-03

 PRINCIPAL AXES
         X             Y             Z
 A  8.273392E-01  3.701238E-02 -5.604819E-01
 B -3.933049E-01  7.505661E-01 -5.310007E-01
 C  4.010251E-01  6.597580E-01  6.355299E-01

 ANGLES BETWEEN PRINCIPAL AXES AND ORIGINAL AXES (DEGREES)
         X             Y             Z
 A     34.173630     87.878863    124.089131
 B    113.160296     41.360561    122.073096
 C     66.357721     48.718581     50.540703


 POINT   ATOM  MASS NO  NUCLEAR G FACTOR
   20   20 O      17      -0.7575220

 TENSOR IN ORIGINAL CARTESIAN AXES
 XX  7.942897E-03 YY  7.633111E-03 ZZ -1.557601E-02 XY -3.050673E-03 XZ -1.162138E-02 YZ -2.029993E-03

 TENSOR IN PRINCIPAL AXIS SYSTEM
 AA  1.347192E-02 BB  7.204895E-03 CC -2.067682E-02

 PRINCIPAL AXES
         X             Y             Z
 A  8.793475E-01 -3.455250E-01 -3.276591E-01
 B  2.818007E-01  9.322746E-01 -2.268314E-01
 C  3.838442E-01  1.071291E-01  9.171625E-01

 ANGLES BETWEEN PRINCIPAL AXES AND ORIGINAL AXES (DEGREES)
         X             Y             Z
 A     28.436251    110.213845    109.126757
 B     73.632293     21.207800    103.110596
 C     67.427994     83.850156     23.485283


 POINT   ATOM  MASS NO  NUCLEAR G FACTOR
   21   21 O      17      -0.7575220

 TENSOR IN ORIGINAL CARTESIAN AXES
 XX -1.412783E-01 YY  6.719384E-02 ZZ  7.408445E-02 XY -6.140467E-02 XZ  6.978210E-02 YZ  2.224667E-02

 TENSOR IN PRINCIPAL AXIS SYSTEM
 AA -1.791675E-01 BB  8.319804E-02 CC  9.596947E-02

 PRINCIPAL AXES
         X             Y             Z
 A  9.259882E-01  2.558692E-01 -2.776272E-01
 B -3.227571E-01  9.179951E-01 -2.304623E-01
 C  1.958922E-01  3.030115E-01  9.326362E-01

 ANGLES BETWEEN PRINCIPAL AXES AND ORIGINAL AXES (DEGREES)
         X             Y             Z
 A     22.182163     75.174905    106.118641
 B    108.829745     23.365283    103.324288
 C     78.703150     72.361430     21.150449


 POINT   ATOM  MASS NO  NUCLEAR G FACTOR
   22   22 O      17      -0.7575220

 TENSOR IN ORIGINAL CARTESIAN AXES
 XX -7.305986E-03 YY  3.148631E-03 ZZ  4.157355E-03 XY  1.290563E-02 XZ  5.555508E-03 YZ  2.111513E-02

 TENSOR IN PRINCIPAL AXIS SYSTEM
 AA -2.049625E-02 BB  2.944403E-02 CC -8.947783E-03

 PRINCIPAL AXES
         X             Y             Z
 A  4.875329E-01 -7.143731E-01  5.019788E-01
 B  3.380269E-01  6.845346E-01  6.458716E-01
 C -8.050152E-01 -1.452014E-01  5.752105E-01

 ANGLES BETWEEN PRINCIPAL AXES AND ORIGINAL AXES (DEGREES)
         X             Y             Z
 A     60.821442    135.591846     59.868998
 B     70.243291     46.800982     49.768941
 C    143.611721     98.348939     54.885624


 POINT   ATOM  MASS NO  NUCLEAR G FACTOR
   23   23 O      17      -0.7575220

 TENSOR IN ORIGINAL CARTESIAN AXES
 XX -1.073639E-03 YY -2.864062E-05 ZZ  1.102280E-03 XY -2.978918E-04 XZ -1.257290E-03 YZ -8.058870E-04

 TENSOR IN PRINCIPAL AXIS SYSTEM
 AA -1.860903E-03 BB -2.140135E-05 CC  1.882304E-03

 PRINCIPAL AXES
         X             Y             Z
 A  8.331749E-01  3.304797E-01  4.433990E-01
 B -4.333384E-01  8.882863E-01  1.522017E-01
 C -3.435657E-01 -3.189524E-01  8.833074E-01

 ANGLES BETWEEN PRINCIPAL AXES AND ORIGINAL AXES (DEGREES)
         X             Y             Z
 A     33.573725     70.702105     63.679046
 B    115.679609     27.341315     81.245462
 C    110.094265    108.599583     27.956056


 POINT   ATOM  MASS NO  NUCLEAR G FACTOR
   24   24 O      17      -0.7575220

 TENSOR IN ORIGINAL CARTESIAN AXES
 XX -1.126513E-02 YY  4.797802E-03 ZZ  6.467330E-03 XY  5.255523E-03 XZ -2.649667E-03 YZ  1.092764E-03

 TENSOR IN PRINCIPAL AXIS SYSTEM
 AA -1.324441E-02 BB  6.236352E-03 CC  7.008056E-03

 PRINCIPAL AXES
         X             Y             Z
 A  9.478402E-01 -2.847697E-01  1.431962E-01
 B  3.186449E-01  8.578515E-01 -4.031826E-01
 C -8.026914E-03  4.277814E-01  9.038466E-01

 ANGLES BETWEEN PRINCIPAL AXES AND ORIGINAL AXES (DEGREES)
         X             Y             Z
 A     18.587101    106.545086     81.767158
 B     71.419009     30.923798    113.777290
 C     90.459913     64.673154     25.331619


 POINT   ATOM  MASS NO  NUCLEAR G FACTOR
   25   25 O      17      -0.7575220

 TENSOR IN ORIGINAL CARTESIAN AXES
 XX -5.359833E-03 YY  5.014262E-03 ZZ  3.455711E-04 XY -1.216802E-03 XZ -8.253071E-03 YZ -3.559665E-04

 TENSOR IN PRINCIPAL AXIS SYSTEM
 AA -1.132713E-02 BB  4.965329E-03 CC  6.361805E-03

 PRINCIPAL AXES
         X             Y             Z
 A  8.132831E-01  7.313251E-02  5.772540E-01
 B  1.245190E-01  9.472132E-01 -2.954354E-01
 C -5.683885E-01  3.121517E-01  7.612462E-01

 ANGLES BETWEEN PRINCIPAL AXES AND ORIGINAL AXES (DEGREES)
         X             Y             Z
 A     35.582045     85.806072     54.742367
 B     82.847021     18.699471    107.183650
 C    124.637931     71.811047     40.425818


 POINT   ATOM  MASS NO  NUCLEAR G FACTOR
   26   26 O      17      -0.7575220

 TENSOR IN ORIGINAL CARTESIAN AXES
 XX -1.505339E-02 YY  8.754204E-03 ZZ  6.299184E-03 XY  1.805410E-03 XZ  1.819445E-03 YZ  1.649743E-03

 TENSOR IN PRINCIPAL AXIS SYSTEM
 AA -1.532246E-02 BB  9.821866E-03 CC  5.500595E-03

 PRINCIPAL AXES
         X             Y             Z
 A  9.945166E-01 -6.920215E-02 -7.840763E-02
 B  9.780508E-02  8.809117E-01  4.630644E-01
 C  3.702514E-02 -4.681939E-01  8.828497E-01

 ANGLES BETWEEN PRINCIPAL AXES AND ORIGINAL AXES (DEGREES)
         X             Y             Z
 A      6.002891     93.968163     94.497042
 B     84.387209     28.247458     62.414972
 C     87.878131    117.917125     28.011946


 POINT   ATOM  MASS NO  NUCLEAR G FACTOR
   27   27 O      17      -0.7575220

 TENSOR IN ORIGINAL CARTESIAN AXES
 XX -1.547892E-03 YY  1.259140E-03 ZZ  2.887514E-04 XY  2.169096E-03 XZ  3.590788E-03 YZ  4.833335E-03

 TENSOR IN PRINCIPAL AXIS SYSTEM
 AA -2.560538E-03 BB  7.450762E-03 CC -4.890224E-03

 PRINCIPAL AXES
         X             Y             Z
 A  7.314327E-01 -6.550721E-01  1.894380E-01
 B  4.121137E-01  6.459724E-01  6.425589E-01
 C -5.432941E-01 -3.919186E-01  7.424495E-01

 ANGLES BETWEEN PRINCIPAL AXES AND ORIGINAL AXES (DEGREES)
         X             Y             Z
 A     42.993364    130.925119     79.080013
 B     65.662315     49.761379     50.017103
 C    122.908168    113.073933     42.059502


 POINT   ATOM  MASS NO  NUCLEAR G FACTOR
   28   28 O      17      -0.7575220

 TENSOR IN ORIGINAL CARTESIAN AXES
 XX -8.151303E-04 YY  3.268496E-04 ZZ  4.882807E-04 XY -6.897548E-04 XZ -2.061860E-03 YZ -7.738057E-04

 TENSOR IN PRINCIPAL AXIS SYSTEM
 AA -2.669903E-03 BB  6.389897E-04 CC  2.030913E-03

 PRINCIPAL AXES
         X             Y             Z
 A  7.549603E-01  3.213696E-01  5.716262E-01
 B -3.461109E-01  9.356593E-01 -6.891297E-02
 C -5.569939E-01 -1.458195E-01  8.176151E-01

 ANGLES BETWEEN PRINCIPAL AXES AND ORIGINAL AXES (DEGREES)
         X             Y             Z
 A     40.978097     71.254227     55.136298
 B    110.249624     20.665085     93.951554
 C    123.848157     98.384737     35.153233


 POINT   ATOM  MASS NO  NUCLEAR G FACTOR
   29   29 O      17      -0.7575220

 TENSOR IN ORIGINAL CARTESIAN AXES
 XX  3.083508E-03 YY -4.641039E-03 ZZ  1.557530E-03 XY -3.788229E-04 XZ  5.879294E-04 YZ  2.735874E-03

 TENSOR IN PRINCIPAL AXIS SYSTEM
 AA  3.347570E-03 BB -5.711864E-03 CC  2.364294E-03

 PRINCIPAL AXES
         X             Y             Z
 A  8.746661E-01  1.194119E-01  4.697871E-01
 B  6.395357E-02  9.322795E-01 -3.560405E-01
 C -4.804884E-01  3.414612E-01  8.077965E-01

 ANGLES BETWEEN PRINCIPAL AXES AND ORIGINAL AXES (DEGREES)
         X             Y             Z
 A     28.994511     83.141839     61.979521
 B     86.333228     21.207016    110.857229
 C    118.717303     70.034079     36.118800


 POINT   ATOM  MASS NO  NUCLEAR G FACTOR
   30   30 O      17      -0.7575220

 TENSOR IN ORIGINAL CARTESIAN AXES
 XX -1.719755E-03 YY  3.512910E-04 ZZ  1.368464E-03 XY -1.260728E-03 XZ -3.082209E-03 YZ -8.369379E-04

 TENSOR IN PRINCIPAL AXIS SYSTEM
 AA -4.133127E-03 BB  8.604578E-04 CC  3.272669E-03

 PRINCIPAL AXES
         X             Y             Z
 A  8.051016E-01  3.195970E-01  4.996690E-01
 B -2.821784E-01  9.473590E-01 -1.512818E-01
 C -5.217151E-01 -1.919858E-02  8.529037E-01

 ANGLES BETWEEN PRINCIPAL AXES AND ORIGINAL AXES (DEGREES)
         X             Y             Z
 A     36.379927     71.361445     60.021897
 B    106.390262     18.673395     98.701216
 C    121.447370     91.100065     31.471089


 POINT   ATOM  MASS NO  NUCLEAR G FACTOR
   31   31 O      17      -0.7575220

 TENSOR IN ORIGINAL CARTESIAN AXES
 XX  3.487528E-03 YY  2.257274E-03 ZZ -5.744802E-03 XY  5.893994E-04 XZ  6.180493E-03 YZ -3.775913E-03

 TENSOR IN PRINCIPAL AXIS SYSTEM
 AA  6.938779E-03 BB  2.997747E-03 CC -9.936526E-03

 PRINCIPAL AXES
         X             Y             Z
 A  8.236776E-01 -2.895477E-01  4.875626E-01
 B  3.907712E-01  9.128900E-01 -1.180244E-01
 C -4.109173E-01  2.877395E-01  8.650739E-01

 ANGLES BETWEEN PRINCIPAL AXES AND ORIGINAL AXES (DEGREES)
         X             Y             Z
 A     34.545351    106.830879     60.819493
 B     66.997506     24.092170     96.778101
 C    114.262474     73.277327     30.108852


 POINT   ATOM  MASS NO  NUCLEAR G FACTOR
   32   32 O      17      -0.7575220

 TENSOR IN ORIGINAL CARTESIAN AXES
 XX  1.986240E-03 YY -2.417102E-03 ZZ  4.308622E-04 XY -5.807145E-05 XZ  1.286106E-03 YZ  3.704201E-03

 TENSOR IN PRINCIPAL AXIS SYSTEM
 AA  3.641128E-03 BB -5.048841E-03 CC  1.407713E-03

 PRINCIPAL AXES
         X             Y             Z
 A  5.432327E-01  4.341716E-01  7.186051E-01
 B  1.117000E-01  8.109249E-01 -5.743900E-01
 C -8.321186E-01  3.922956E-01  3.920240E-01

 ANGLES BETWEEN PRINCIPAL AXES AND ORIGINAL AXES (DEGREES)
         X             Y             Z
 A     57.096026     64.267409     44.060565
 B     83.586680     35.813603    125.056926
 C    146.316989     66.902587     66.919504


 POINT   ATOM  MASS NO  NUCLEAR G FACTOR
   33   33 O      17      -0.7575220

 TENSOR IN ORIGINAL CARTESIAN AXES
 XX -2.080438E-03 YY  9.327378E-04 ZZ  1.147700E-03 XY -1.592437E-04 XZ -1.072292E-03 YZ  1.110977E-03

 TENSOR IN PRINCIPAL AXIS SYSTEM
 AA -2.413547E-03 BB  6.736397E-05 CC  2.346183E-03

 PRINCIPAL AXES
         X             Y             Z
 A  9.511375E-01 -5.557478E-02  3.037249E-01
 B  2.301166E-01  7.834554E-01 -5.772730E-01
 C -2.058731E-01  6.189581E-01  7.579625E-01

 ANGLES BETWEEN PRINCIPAL AXES AND ORIGINAL AXES (DEGREES)
         X             Y             Z
 A     17.984971     93.185842     72.318532
 B     76.696064     38.421958    125.258964
 C    101.880614     51.759909     40.715098


 POINT   ATOM  MASS NO  NUCLEAR G FACTOR
   34   34 O      17      -0.7575220

 TENSOR IN ORIGINAL CARTESIAN AXES
 XX  5.257643E-03 YY -1.112086E-02 ZZ  5.863218E-03 XY  2.547285E-03 XZ -2.763602E-03 YZ -2.974130E-03

 TENSOR IN PRINCIPAL AXIS SYSTEM
 AA  2.780761E-03 BB -1.187937E-02 CC  9.098613E-03

 PRINCIPAL AXES
         X             Y             Z
 A  7.470976E-01 -5.309725E-03  6.646932E-01
 B -1.224668E-01  9.817505E-01  1.454920E-01
 C -6.533353E-01 -1.900996E-01  7.328131E-01

 ANGLES BETWEEN PRINCIPAL AXES AND ORIGINAL AXES (DEGREES)
         X             Y             Z
 A     41.660416     90.304226     48.341210
 B     97.034493     10.962921     81.634232
 C    130.793547    100.958595     42.877250


 POINT   ATOM  MASS NO  NUCLEAR G FACTOR
   35   35 O      17      -0.7575220

 TENSOR IN ORIGINAL CARTESIAN AXES
 XX  1.208212E-03 YY -8.057106E-04 ZZ -4.025011E-04 XY  3.031823E-03 XZ  1.475230E-03 YZ -6.310246E-04

 TENSOR IN PRINCIPAL AXIS SYSTEM
 AA  3.580996E-03 BB -3.602755E-03 CC  2.175918E-05

 PRINCIPAL AXES
         X             Y             Z
 A  8.172258E-01  5.334363E-01  2.181462E-01
 B -5.731394E-01  7.125500E-01  4.047020E-01
 C  6.044264E-02 -4.557611E-01  8.880476E-01

 ANGLES BETWEEN PRINCIPAL AXES AND ORIGINAL AXES (DEGREES)
         X             Y             Z
 A     35.191962     57.762073     77.399824
 B    124.969435     44.557227     66.127545
 C     86.534780    117.113916     27.371078


 POINT   ATOM  MASS NO  NUCLEAR G FACTOR
   36   36 O      17      -0.7575220

 TENSOR IN ORIGINAL CARTESIAN AXES
 XX  7.362736E-03 YY -1.390672E-02 ZZ  6.543982E-03 XY -3.746381E-03 XZ  3.443743E-03 YZ -2.121519E-03

 TENSOR IN PRINCIPAL AXIS SYSTEM
 AA  1.113220E-02 BB -1.465821E-02 CC  3.526008E-03

 PRINCIPAL AXES
         X             Y             Z
 A  7.501336E-01 -1.664625E-01  6.399920E-01
 B  1.561317E-01  9.850199E-01  7.320287E-02
 C -6.425904E-01  4.501112E-02  7.648867E-01

 ANGLES BETWEEN PRINCIPAL AXES AND ORIGINAL AXES (DEGREES)
         X             Y             Z
 A     41.398044     99.582207     50.208779
 B     81.017561      9.929754     85.802030
 C    129.985249     87.420181     40.103090


 POINT   ATOM  MASS NO  NUCLEAR G FACTOR
   37   37 O      17      -0.7575220

 TENSOR IN ORIGINAL CARTESIAN AXES
 XX  3.708428E-02 YY  1.387994E-01 ZZ -1.758837E-01 XY  2.987660E-02 XZ -1.750895E-01 YZ  5.817102E-02

 TENSOR IN PRINCIPAL AXIS SYSTEM
 AA  1.350970E-01 BB  1.493206E-01 CC -2.844176E-01

 PRINCIPAL AXES
         X             Y             Z
 A  8.718109E-01  1.718707E-01 -4.587006E-01
 B -7.813525E-02  9.732277E-01  2.161543E-01
 C  4.835707E-01 -1.526050E-01  8.618997E-01

 ANGLES BETWEEN PRINCIPAL AXES AND ORIGINAL AXES (DEGREES)
         X             Y             Z
 A     29.330234     80.103399    117.303289
 B     94.481388     13.287830     77.516741
 C     61.081129     98.777922     30.469445


 POINT   ATOM  MASS NO  NUCLEAR G FACTOR
   38   38 O      17      -0.7575220

 TENSOR IN ORIGINAL CARTESIAN AXES
 XX -3.380042E-03 YY  2.112222E-03 ZZ  1.267821E-03 XY  7.799405E-04 XZ -2.068534E-04 YZ  2.010761E-04

 TENSOR IN PRINCIPAL AXIS SYSTEM
 AA -3.500012E-03 BB  2.250737E-03 CC  1.249276E-03

 PRINCIPAL AXES
         X             Y             Z
 A  9.890622E-01 -1.391992E-01  4.878118E-02
 B  1.289183E-01  9.765123E-01  1.726375E-01
 C -7.166642E-02 -1.644604E-01  9.837768E-01

 ANGLES BETWEEN PRINCIPAL AXES AND ORIGINAL AXES (DEGREES)
         X             Y             Z
 A      8.482029     98.001509     87.203935
 B     82.592908     12.442601     80.058797
 C     94.109706     99.465890     10.334641


 POINT   ATOM  MASS NO  NUCLEAR G FACTOR
   39   39 O      17      -0.7575220

 TENSOR IN ORIGINAL CARTESIAN AXES
 XX  2.539776E-02 YY -4.668171E-02 ZZ  2.128395E-02 XY  1.661963E-03 XZ  9.956855E-03 YZ -1.025598E-02

 TENSOR IN PRINCIPAL AXIS SYSTEM
 AA  3.385928E-02 BB -4.832814E-02 CC  1.446885E-02

 PRINCIPAL AXES
         X             Y             Z
 A  7.546779E-01 -6.752980E-02  6.526109E-01
 B -4.273553E-02  9.875170E-01  1.516039E-01
 C -6.547022E-01 -1.423018E-01  7.423713E-01

 ANGLES BETWEEN PRINCIPAL AXES AND ORIGINAL AXES (DEGREES)
         X             Y             Z
 A     41.002769     93.872119     49.261255
 B     92.449311      9.062522     81.280112
 C    130.897073     98.181064     42.066188


 POINT   ATOM  MASS NO  NUCLEAR G FACTOR
   40   40 O      17      -0.7575220

 TENSOR IN ORIGINAL CARTESIAN AXES
 XX  6.522675E-02 YY -1.159631E-01 ZZ  5.073637E-02 XY -3.896584E-03 XZ -2.732306E-03 YZ -6.118694E-02

 TENSOR IN PRINCIPAL AXIS SYSTEM
 AA  6.499915E-02 BB -1.361138E-01 CC  7.111462E-02

 PRINCIPAL AXES
         X             Y             Z
 A  9.723462E-01 -9.332436E-02  2.140875E-01
 B  2.261178E-02  9.500022E-01  3.114234E-01
 C -2.324470E-01 -2.979705E-01  9.258412E-01

 ANGLES BETWEEN PRINCIPAL AXES AND ORIGINAL AXES (DEGREES)
         X             Y             Z
 A     13.505826     95.354884     77.637999
 B     88.704330     18.194470     71.854968
 C    103.441181    107.335745     22.204451


 POINT   ATOM  MASS NO  NUCLEAR G FACTOR
   41   41 O      17      -0.7575220

 TENSOR IN ORIGINAL CARTESIAN AXES
 XX  2.113531E-03 YY  3.183826E-05 ZZ -2.145369E-03 XY  5.726911E-04 XZ  6.400243E-04 YZ -2.916293E-03

 TENSOR IN PRINCIPAL AXIS SYSTEM
 AA  2.276692E-03 BB  2.006522E-03 CC -4.283214E-03

 PRINCIPAL AXES
         X             Y             Z
 A  8.957773E-01  4.194925E-01 -1.470002E-01
 B -4.244162E-01  7.088822E-01 -5.633444E-01
 C -1.321130E-01  5.670204E-01  8.130400E-01

 ANGLES BETWEEN PRINCIPAL AXES AND ORIGINAL AXES (DEGREES)
         X             Y             Z
 A     26.391550     65.197451     98.453122
 B    115.113719     44.855963    124.287404
 C     97.591709     55.457289     35.605982


 POINT   ATOM  MASS NO  NUCLEAR G FACTOR
   42   42 O      17      -0.7575220

 TENSOR IN ORIGINAL CARTESIAN AXES
 XX  2.156556E-03 YY -6.354053E-03 ZZ  4.197497E-03 XY  8.999711E-03 XZ  9.395554E-03 YZ -9.247255E-03

 TENSOR IN PRINCIPAL AXIS SYSTEM
 AA  1.270158E-02 BB -1.920020E-02 CC  6.498619E-03

 PRINCIPAL AXES
         X             Y             Z
 A  6.219195E-01 -8.408974E-02  7.785531E-01
 B -5.121701E-01  7.084023E-01  4.856418E-01
 C -5.923663E-01 -7.007818E-01  3.975010E-01

 ANGLES BETWEEN PRINCIPAL AXES AND ORIGINAL AXES (DEGREES)
         X             Y             Z
 A     51.543555     94.823684     38.871707
 B    120.808489     44.894932     60.945468
 C    126.325110    134.489761     66.577956


 POINT   ATOM  MASS NO  NUCLEAR G FACTOR
   43   43 O      17      -0.7575220

 TENSOR IN ORIGINAL CARTESIAN AXES
 XX -1.434041E-02 YY  7.202480E-03 ZZ  7.137927E-03 XY  1.215699E-03 XZ -2.216307E-03 YZ  1.125352E-03

 TENSOR IN PRINCIPAL AXIS SYSTEM
 AA -1.464708E-02 BB  6.328493E-03 CC  8.318588E-03

 PRINCIPAL AXES
         X             Y             Z
 A  9.927165E-01 -6.059718E-02  1.041248E-01
 B  1.157191E-01  7.200393E-01 -6.842167E-01
 C -3.351232E-02  6.912824E-01  7.218072E-01

 ANGLES BETWEEN PRINCIPAL AXES AND ORIGINAL AXES (DEGREES)
         X             Y             Z
 A      6.919459     93.474091     84.023258
 B     83.354898     43.942271    133.174032
 C     91.920474     46.268294     43.796113


 POINT   ATOM  MASS NO  NUCLEAR G FACTOR
   44   44 O      17      -0.7575220

 TENSOR IN ORIGINAL CARTESIAN AXES
 XX -1.277829E-01 YY  7.168480E-02 ZZ  5.609814E-02 XY  4.646634E-02 XZ  9.255882E-02 YZ -1.654826E-02

 TENSOR IN PRINCIPAL AXIS SYSTEM
 AA -1.760971E-01 BB  8.100813E-02 CC  9.508892E-02

 PRINCIPAL AXES
         X             Y             Z
 A  9.062255E-01 -1.949978E-01 -3.751414E-01
 B  1.071966E-01  9.642684E-01 -2.422712E-01
 C  4.089794E-01  1.793385E-01  8.947478E-01

 ANGLES BETWEEN PRINCIPAL AXES AND ORIGINAL AXES (DEGREES)
         X             Y             Z
 A     25.011147    101.244597    112.033055
 B     83.846264     15.362628    104.020626
 C     65.859261     79.668771     26.523950


 POINT   ATOM  MASS NO  NUCLEAR G FACTOR
   45   45 O      17      -0.7575220

 TENSOR IN ORIGINAL CARTESIAN AXES
 XX -7.719791E-02 YY -2.271483E-02 ZZ  9.991275E-02 XY -2.073881E-01 XZ -1.267259E-01 YZ -1.102775E-01

 TENSOR IN PRINCIPAL AXIS SYSTEM
 AA -3.254671E-01 BB  1.591587E-01 CC  1.663084E-01

 PRINCIPAL AXES
         X             Y             Z
 A  6.995302E-01  6.129772E-01  3.673097E-01
 B -6.324268E-01  7.703570E-01 -8.115649E-02
 C -3.327067E-01 -1.755251E-01  9.265512E-01

 ANGLES BETWEEN PRINCIPAL AXES AND ORIGINAL AXES (DEGREES)
         X             Y             Z
 A     45.610673     52.194915     68.450205
 B    129.229398     39.614042     94.655044
 C    109.433142    100.109217     22.096556


 POINT   ATOM  MASS NO  NUCLEAR G FACTOR
   46   46 O      17      -0.7575220

 TENSOR IN ORIGINAL CARTESIAN AXES
 XX -1.169851E-03 YY -3.992345E-04 ZZ  1.569086E-03 XY -1.532611E-05 XZ -1.103085E-03 YZ -1.212459E-03

 TENSOR IN PRINCIPAL AXIS SYSTEM
 AA -1.735840E-03 BB -6.884289E-04 CC  2.424269E-03

 PRINCIPAL AXES
         X             Y             Z
 A  8.224377E-01  3.873428E-01  4.166074E-01
 B -5.006526E-01  8.405781E-01  2.068222E-01
 C -2.700800E-01 -3.786740E-01  8.852473E-01

 ANGLES BETWEEN PRINCIPAL AXES AND ORIGINAL AXES (DEGREES)
         X             Y             Z
 A     34.670433     67.210737     65.379414
 B    120.043185     32.798783     78.063810
 C    105.669027    112.251570     27.718028


 POINT   ATOM  MASS NO  NUCLEAR G FACTOR
   47   47 O      17      -0.7575220

 TENSOR IN ORIGINAL CARTESIAN AXES
 XX -3.773004E-03 YY  5.499190E-04 ZZ  3.223085E-03 XY -4.928756E-04 XZ -1.186440E-03 YZ  4.375971E-05

 TENSOR IN PRINCIPAL AXIS SYSTEM
 AA -4.019010E-03 BB  5.948410E-04 CC  3.424169E-03

 PRINCIPAL AXES
         X             Y             Z
 A  9.815575E-01  1.043519E-01  1.601737E-01
 B -9.586991E-02  9.935947E-01 -5.982068E-02
 C -1.653901E-01  4.336160E-02  9.852745E-01

 ANGLES BETWEEN PRINCIPAL AXES AND ORIGINAL AXES (DEGREES)
         X             Y             Z
 A     11.020914     84.010170     80.783023
 B     95.501391      6.488423     93.429520
 C     99.519898     87.514784      9.844797


 POINT   ATOM  MASS NO  NUCLEAR G FACTOR
   48   48 O      17      -0.7575220

 TENSOR IN ORIGINAL CARTESIAN AXES
 XX  7.394795E-03 YY -9.662999E-03 ZZ  2.268204E-03 XY -1.083915E-02 XZ -5.530196E-03 YZ -1.187491E-02

 TENSOR IN PRINCIPAL AXIS SYSTEM
 AA  1.266905E-02 BB -2.199676E-02 CC  9.327709E-03

 PRINCIPAL AXES
         X             Y             Z
 A  8.876185E-01 -4.577797E-01  5.070608E-02
 B  3.817682E-01  7.928503E-01  4.750172E-01
 C -2.576556E-01 -4.022761E-01  8.785144E-01

 ANGLES BETWEEN PRINCIPAL AXES AND ORIGINAL AXES (DEGREES)
         X             Y             Z
 A     27.424501    117.243929     87.093509
 B     67.556746     37.547316     61.639529
 C    104.930998    113.720546     28.536329


 POINT   ATOM  MASS NO  NUCLEAR G FACTOR
   49   49 O      17      -0.7575220

 TENSOR IN ORIGINAL CARTESIAN AXES
 XX -4.247965E-03 YY  4.777809E-03 ZZ -5.298440E-04 XY -8.592826E-05 XZ -7.902490E-03 YZ  6.054949E-04

 TENSOR IN PRINCIPAL AXIS SYSTEM
 AA -1.051336E-02 BB  4.548117E-03 CC  5.965240E-03

 PRINCIPAL AXES
         X             Y             Z
 A  7.833323E-01 -2.019914E-02  6.212749E-01
 B  2.679998E-01  9.127817E-01 -3.082299E-01
 C -5.608624E-01  4.079480E-01  7.204247E-01

 ANGLES BETWEEN PRINCIPAL AXES AND ORIGINAL AXES (DEGREES)
         X             Y             Z
 A     38.433304     91.157404     51.590703
 B     74.454722     24.107360    107.952586
 C    124.115461     65.924007     43.910441


 POINT   ATOM  MASS NO  NUCLEAR G FACTOR
   50   50 O      17      -0.7575220

 TENSOR IN ORIGINAL CARTESIAN AXES
 XX -1.111042E-03 YY  2.998929E-03 ZZ -1.887888E-03 XY  3.848371E-03 XZ -6.182098E-03 YZ  4.802177E-03

 TENSOR IN PRINCIPAL AXIS SYSTEM
 AA -1.048771E-02 BB  5.944705E-03 CC  4.543007E-03

 PRINCIPAL AXES
         X             Y             Z
 A  6.133640E-01 -4.144208E-01  6.723392E-01
 B  2.297209E-02  8.602783E-01  5.093069E-01
 C -7.894662E-01 -2.969455E-01  5.371839E-01

 ANGLES BETWEEN PRINCIPAL AXES AND ORIGINAL AXES (DEGREES)
         X             Y             Z
 A     52.166858    114.482846     47.752137
 B     88.683680     30.652153     59.382328
 C    142.135655    107.274233     57.507862


 POINT   ATOM  MASS NO  NUCLEAR G FACTOR
   51   51 O      17      -0.7575220

 TENSOR IN ORIGINAL CARTESIAN AXES
 XX  6.036975E-04 YY -1.259232E-03 ZZ  6.555342E-04 XY -6.272023E-03 XZ  5.745632E-03 YZ  1.048089E-02

 TENSOR IN PRINCIPAL AXIS SYSTEM
 AA  5.136161E-03 BB -1.535888E-02 CC  1.022272E-02

 PRINCIPAL AXES
         X             Y             Z
 A  8.825210E-01 -3.490873E-01  3.151106E-01
 B  4.702666E-01  6.516178E-01 -5.951836E-01
 C  2.439389E-03  6.734481E-01  7.392305E-01

 ANGLES BETWEEN PRINCIPAL AXES AND ORIGINAL AXES (DEGREES)
         X             Y             Z
 A     28.052017    110.431503     71.632508
 B     61.948393     49.336313    126.525724
 C     89.860233     47.666250     42.334092


 POINT   ATOM  MASS NO  NUCLEAR G FACTOR
   52   52 O      17      -0.7575220

 TENSOR IN ORIGINAL CARTESIAN AXES
 XX  2.156270E-03 YY -6.206343E-03 ZZ  4.050073E-03 XY -2.904923E-03 XZ  6.602063E-04 YZ  9.904331E-04

 TENSOR IN PRINCIPAL AXIS SYSTEM
 AA  2.973831E-03 BB -7.232200E-03 CC  4.258369E-03

 PRINCIPAL AXES
         X             Y             Z
 A  9.101938E-01 -3.168016E-01 -2.668032E-01
 B  3.005462E-01  9.484209E-01 -1.008458E-01
 C  2.849899E-01  1.160254E-02  9.584603E-01

 ANGLES BETWEEN PRINCIPAL AXES AND ORIGINAL AXES (DEGREES)
         X             Y             Z
 A     24.467851    108.469609    105.474129
 B     72.509590     18.482440     95.787878
 C     73.441757     89.335209     16.572355


 POINT   ATOM  MASS NO  NUCLEAR G FACTOR
   53   53 O      17      -0.7575220

 TENSOR IN ORIGINAL CARTESIAN AXES
 XX -3.137910E-03 YY -1.248525E-03 ZZ  4.386435E-03 XY  3.100081E-03 XZ  2.289686E-03 YZ -6.643634E-04

 TENSOR IN PRINCIPAL AXIS SYSTEM
 AA -5.923397E-03 BB  8.874211E-04 CC  5.035976E-03

 PRINCIPAL AXES
         X             Y             Z
 A  7.998721E-01 -5.608055E-01 -2.137799E-01
 B  5.292726E-01  8.270624E-01 -1.893101E-01
 C  2.829755E-01  3.827603E-02  9.583631E-01

 ANGLES BETWEEN PRINCIPAL AXES AND ORIGINAL AXES (DEGREES)
         X             Y             Z
 A     36.882112    124.111521    102.343959
 B     58.043677     34.201857    100.912528
 C     73.562127     87.806409     16.591873


 POINT   ATOM  MASS NO  NUCLEAR G FACTOR
   54   54 O      17      -0.7575220

 TENSOR IN ORIGINAL CARTESIAN AXES
 XX -1.840734E-03 YY  2.739077E-03 ZZ -8.983429E-04 XY -1.306001E-03 XZ  4.710815E-03 YZ  2.549590E-03

 TENSOR IN PRINCIPAL AXIS SYSTEM
 AA -6.859558E-03 BB  4.407843E-03 CC  2.451715E-03

 PRINCIPAL AXES
         X             Y             Z
 A  6.952956E-01  2.713784E-01 -6.655208E-01
 B  3.268339E-01  7.053109E-01  6.290597E-01
 C  6.401122E-01 -6.548972E-01  4.017039E-01

 ANGLES BETWEEN PRINCIPAL AXES AND ORIGINAL AXES (DEGREES)
         X             Y             Z
 A     45.949226     74.253697    131.722289
 B     70.923281     45.145332     51.019217
 C     50.199811    130.911853     66.315259


 POINT   ATOM  MASS NO  NUCLEAR G FACTOR
   55   55 O      17      -0.7575220

 TENSOR IN ORIGINAL CARTESIAN AXES
 XX -7.847393E-02 YY -6.274757E-02 ZZ  1.412215E-01 XY  1.864002E-01 XZ -7.774898E-03 YZ  3.136583E-02

 TENSOR IN PRINCIPAL AXIS SYSTEM
 AA -2.590450E-01 BB  1.076016E-01 CC  1.514435E-01

 PRINCIPAL AXES
         X             Y             Z
 A  7.179952E-01 -6.926961E-01  6.822786E-02
 B  6.461351E-01  6.268488E-01 -4.353964E-01
 C  2.588289E-01  3.566970E-01  8.976496E-01

 ANGLES BETWEEN PRINCIPAL AXES AND ORIGINAL AXES (DEGREES)
         X             Y             Z
 A     44.110795    133.843910     86.087792
 B     49.749166     51.181989    115.810523
 C     74.999417     69.102517     26.149177


 POINT   ATOM  MASS NO  NUCLEAR G FACTOR
   56   56 O      17      -0.7575220

 TENSOR IN ORIGINAL CARTESIAN AXES
 XX -8.008676E-02 YY -8.046033E-03 ZZ  8.813279E-02 XY  1.316037E-01 XZ -1.255947E-02 YZ  1.155521E-03

 TENSOR IN PRINCIPAL AXIS SYSTEM
 AA -1.809351E-01 BB  9.742987E-02 CC  8.350524E-02

 PRINCIPAL AXES
         X             Y             Z
 A  7.949455E-01 -6.053802E-01  3.970605E-02
 B  5.026375E-01  6.205535E-01 -6.018878E-01
 C  3.397312E-01  4.984257E-01  7.975930E-01

 ANGLES BETWEEN PRINCIPAL AXES AND ORIGINAL AXES (DEGREES)
         X             Y             Z
 A     37.349896    127.256204     87.724413
 B     59.825352     51.643434    127.005219
 C     70.139502     60.104100     37.099142


 POINT   ATOM  MASS NO  NUCLEAR G FACTOR
   57   57 O      17      -0.7575220

 TENSOR IN ORIGINAL CARTESIAN AXES
 XX  1.697324E-03 YY  4.663392E-05 ZZ -1.743958E-03 XY -9.750404E-04 XZ  2.454586E-03 YZ  3.707563E-03

 TENSOR IN PRINCIPAL AXIS SYSTEM
 AA  3.513597E-03 BB  2.041219E-03 CC -5.554816E-03

 PRINCIPAL AXES
         X             Y             Z
 A  5.793585E-01  5.137507E-01  6.327748E-01
 B -7.443176E-01  6.498595E-01  1.538635E-01
 C -3.321673E-01 -5.601275E-01  7.588953E-01

 ANGLES BETWEEN PRINCIPAL AXES AND ORIGINAL AXES (DEGREES)
         X             Y             Z
 A     54.594564     59.086016     50.744858
 B    138.100516     49.468988     81.149112
 C    109.400374    124.064618     40.633095


 POINT   ATOM  MASS NO  NUCLEAR G FACTOR
   58   58 O      17      -0.7575220

 TENSOR IN ORIGINAL CARTESIAN AXES
 XX -2.965943E-02 YY -1.451546E-02 ZZ  4.417489E-02 XY -1.264850E-03 XZ -1.889946E-02 YZ -1.651361E-02

 TENSOR IN PRINCIPAL AXIS SYSTEM
 AA -3.564604E-02 BB -1.680947E-02 CC  5.245551E-02

 PRINCIPAL AXES
         X             Y             Z
 A  9.230526E-01  2.696505E-01  2.743403E-01
 B -3.190375E-01  9.350911E-01  1.543361E-01
 C -2.149164E-01 -2.299852E-01  9.491669E-01

 ANGLES BETWEEN PRINCIPAL AXES AND ORIGINAL AXES (DEGREES)
         X             Y             Z
 A     22.623495     74.356531     74.077295
 B    108.604727     20.757126     81.121705
 C    102.410622    103.296200     18.347130


 POINT   ATOM  MASS NO  NUCLEAR G FACTOR
   59   59 O      17      -0.7575220

 TENSOR IN ORIGINAL CARTESIAN AXES
 XX  4.647018E-02 YY  8.580789E-02 ZZ -1.322781E-01 XY  3.451771E-02 XZ -1.092504E-01 YZ  5.983685E-02

 TENSOR IN PRINCIPAL AXIS SYSTEM
 AA  9.451745E-02 BB  1.060951E-01 CC -2.006125E-01

 PRINCIPAL AXES
         X             Y             Z
 A  6.853972E-01 -5.513641E-01 -4.756347E-01
 B  5.946096E-01  8.008296E-01 -7.149388E-02
 C  4.203215E-01 -2.338152E-01  8.767327E-01

 ANGLES BETWEEN PRINCIPAL AXES AND ORIGINAL AXES (DEGREES)
         X             Y             Z
 A     46.733149    123.460644    118.400683
 B     53.515197     36.790600     94.099795
 C     65.145112    103.521795     28.749290


 POINT   ATOM  MASS NO  NUCLEAR G FACTOR
   60   60 O      17      -0.7575220

 TENSOR IN ORIGINAL CARTESIAN AXES
 XX  2.101069E-03 YY  8.507009E-04 ZZ -2.951770E-03 XY  3.584688E-03 XZ  3.026582E-03 YZ -1.185479E-03

 TENSOR IN PRINCIPAL AXIS SYSTEM
 AA  5.444307E-03 BB  1.257846E-04 CC -5.570091E-03

 PRINCIPAL AXES
         X             Y             Z
 A  7.964876E-01  5.681571E-01  2.068935E-01
 B -3.464623E-01  7.092608E-01 -6.139324E-01
 C -4.955515E-01  4.173088E-01  7.617625E-01

 ANGLES BETWEEN PRINCIPAL AXES AND ORIGINAL AXES (DEGREES)
         X             Y             Z
 A     37.204006     55.378185     78.059633
 B    110.271084     44.825197    127.874389
 C    119.706126     65.335204     40.380180


 POINT   ATOM  MASS NO  NUCLEAR G FACTOR
   61   61 O      17      -0.7575220

 TENSOR IN ORIGINAL CARTESIAN AXES
 XX -7.194195E-04 YY  1.111708E-03 ZZ -3.922886E-04 XY -9.761479E-04 XZ -2.592470E-03 YZ -2.171535E-03

 TENSOR IN PRINCIPAL AXIS SYSTEM
 AA -4.104516E-03 BB  1.210996E-03 CC  2.893519E-03

 PRINCIPAL AXES
         X             Y             Z
 A  6.275259E-01  3.964104E-01  6.701269E-01
 B -7.137682E-01  6.367286E-01  2.917390E-01
 C -3.110405E-01 -6.613890E-01  6.825088E-01

 ANGLES BETWEEN PRINCIPAL AXES AND ORIGINAL AXES (DEGREES)
         X             Y             Z
 A     51.132177     66.646031     47.923143
 B    135.542339     50.451691     73.037902
 C    108.121949    131.405895     46.959994


 POINT   ATOM  MASS NO  NUCLEAR G FACTOR
   62   62 O      17      -0.7575220

 TENSOR IN ORIGINAL CARTESIAN AXES
 XX -9.285835E-02 YY  3.054535E-02 ZZ  6.231301E-02 XY -6.511463E-02 XZ  6.499477E-03 YZ  3.686603E-03

 TENSOR IN PRINCIPAL AXIS SYSTEM
 AA -1.211624E-01 BB  5.839024E-02 CC  6.277219E-02

 PRINCIPAL AXES
         X             Y             Z
 A  9.178235E-01  3.949228E-01 -4.044844E-02
 B -3.950984E-01  8.987678E-01 -1.900361E-01
 C -3.869584E-02  1.904007E-01  9.809435E-01

 ANGLES BETWEEN PRINCIPAL AXES AND ORIGINAL AXES (DEGREES)
         X             Y             Z
 A     23.390066     66.738842     92.318158
 B    113.272108     26.003430    100.954893
 C     92.217662     79.023828     11.203431


 POINT   ATOM  MASS NO  NUCLEAR G FACTOR
   63   63 O      17      -0.7575220

 TENSOR IN ORIGINAL CARTESIAN AXES
 XX  7.206121E-02 YY  5.436953E-02 ZZ -1.264307E-01 XY  2.275573E-02 XZ -6.128595E-02 YZ  8.273621E-02

 TENSOR IN PRINCIPAL AXIS SYSTEM
 AA  8.959321E-02 BB  8.622119E-02 CC -1.758144E-01

 PRINCIPAL AXES
         X             Y             Z
 A  9.238687E-01 -1.872024E-01 -3.337991E-01
 B  2.853847E-01  9.181229E-01  2.749655E-01
 C  2.549944E-01 -3.492931E-01  9.016497E-01

 ANGLES BETWEEN PRINCIPAL AXES AND ORIGINAL AXES (DEGREES)
         X             Y             Z
 A     22.501615    100.789563    109.499526
 B     73.418156     23.346819     74.040044
 C     75.226750    110.444086     25.624232


 POINT   ATOM  MASS NO  NUCLEAR G FACTOR
   64   64 O      17      -0.7575220

 TENSOR IN ORIGINAL CARTESIAN AXES
 XX -1.778982E-01 YY  4.115316E-02 ZZ  1.367450E-01 XY  1.766164E-01 XZ -2.386089E-02 YZ  9.976655E-03

 TENSOR IN PRINCIPAL AXIS SYSTEM
 AA -2.777862E-01 BB  1.418266E-01 CC  1.359596E-01

 PRINCIPAL AXES
         X             Y             Z
 A  8.723243E-01 -4.849955E-01  6.188452E-02
 B  4.091121E-01  6.547421E-01 -6.355628E-01
 C  2.677267E-01  5.797346E-01  7.695649E-01

 ANGLES BETWEEN PRINCIPAL AXES AND ORIGINAL AXES (DEGREES)
         X             Y             Z
 A     29.270128    119.012176     86.452011
 B     65.850928     49.099905    129.461740
 C     74.470963     54.568122     39.685162


 POINT   ATOM  MASS NO  NUCLEAR G FACTOR
   65   65 SI     29      -1.1106000

 TENSOR IN ORIGINAL CARTESIAN AXES
 XX -4.095514E-02 YY  4.598353E-02 ZZ -5.028386E-03 XY -2.275019E-02 XZ -1.799693E-02 YZ  5.575872E-02

 TENSOR IN PRINCIPAL AXIS SYSTEM
 AA -4.842478E-02 BB  8.824615E-02 CC -3.982137E-02

 PRINCIPAL AXES
         X             Y             Z
 A  9.166278E-01 -1.503948E-02  3.994587E-01
 B -2.181538E-01  8.185429E-01  5.314098E-01
 C -3.349662E-01 -5.742484E-01  7.470183E-01

 ANGLES BETWEEN PRINCIPAL AXES AND ORIGINAL AXES (DEGREES)
         X             Y             Z
 A     23.562032     90.861731     66.455657
 B    102.600618     35.060799     57.899240
 C    109.570483    125.047017     41.667249


 POINT   ATOM  MASS NO  NUCLEAR G FACTOR
   66   66 SI     29      -1.1106000

 TENSOR IN ORIGINAL CARTESIAN AXES
 XX -1.336323E-01 YY -3.992380E-02 ZZ  1.735561E-01 XY  1.610655E-01 XZ -1.208622E-01 YZ  1.018371E-01

 TENSOR IN PRINCIPAL AXIS SYSTEM
 AA -3.064186E-01 BB  8.049114E-02 CC  2.259274E-01

 PRINCIPAL AXES
         X             Y             Z
 A  7.554243E-01 -5.759557E-01  3.124247E-01
 B  6.192365E-01  7.834098E-01 -5.305884E-02
 C -2.141970E-01  2.335467E-01  9.484596E-01

 ANGLES BETWEEN PRINCIPAL AXES AND ORIGINAL AXES (DEGREES)
         X             Y             Z
 A     40.937544    125.166590     71.794588
 B     51.739601     38.426155     93.041476
 C    102.368421     76.494030     18.475438


 POINT   ATOM  MASS NO  NUCLEAR G FACTOR
   67   67 SI     29      -1.1106000

 TENSOR IN ORIGINAL CARTESIAN AXES
 XX -3.547603E-05 YY -1.657504E-03 ZZ  1.692980E-03 XY -6.891065E-03 XZ -1.912686E-04 YZ  3.604829E-03

 TENSOR IN PRINCIPAL AXIS SYSTEM
 AA  7.330746E-03 BB -8.463357E-03 CC  1.132612E-03

 PRINCIPAL AXES
         X             Y             Z
 A  6.203988E-01 -6.510384E-01 -4.373263E-01
 B  6.085509E-01  7.513513E-01 -2.552196E-01
 C  4.947434E-01 -1.077974E-01  8.623275E-01

 ANGLES BETWEEN PRINCIPAL AXES AND ORIGINAL AXES (DEGREES)
         X             Y             Z
 A     51.654735    130.619937    115.933414
 B     52.515201     41.292434    104.786595
 C     60.347167     96.188362     30.421076


 POINT   ATOM  MASS NO  NUCLEAR G FACTOR
   68   68 SI     29      -1.1106000

 TENSOR IN ORIGINAL CARTESIAN AXES
 XX -4.952959E-03 YY -3.026240E-03 ZZ  7.979200E-03 XY -1.457685E-02 XZ  8.780896E-03 YZ -1.541536E-03

 TENSOR IN PRINCIPAL AXIS SYSTEM
 AA -1.970174E-02 BB  1.688826E-02 CC  2.813486E-03

 PRINCIPAL AXES
         X             Y             Z
 A  7.466030E-01  6.340113E-01 -2.015282E-01
 B -5.830027E-01  4.776184E-01 -6.572583E-01
 C -3.204556E-01  6.082025E-01  7.262217E-01

 ANGLES BETWEEN PRINCIPAL AXES AND ORIGINAL AXES (DEGREES)
         X             Y             Z
 A     41.703032     50.653304    101.626338
 B    125.662017     61.470027    131.091107
 C    108.690481     52.540356     43.429427


 POINT   ATOM  MASS NO  NUCLEAR G FACTOR
   69   69 SI     29      -1.1106000

 TENSOR IN ORIGINAL CARTESIAN AXES
 XX  1.757444E-03 YY  1.053768E-03 ZZ -2.811212E-03 XY  6.695133E-04 XZ -7.708706E-04 YZ  4.273755E-03

 TENSOR IN PRINCIPAL AXIS SYSTEM
 AA  1.883677E-03 BB  3.822326E-03 CC -5.706004E-03

 PRINCIPAL AXES
         X             Y             Z
 A  9.882039E-01  1.039901E-02 -1.527902E-01
 B  7.370935E-02  8.422310E-01  5.340541E-01
 C  1.342383E-01 -5.390165E-01  8.315295E-01

 ANGLES BETWEEN PRINCIPAL AXES AND ORIGINAL AXES (DEGREES)
         X             Y             Z
 A      8.809151     89.404170     98.788657
 B     85.772932     32.623533     57.720213
 C     82.285425    122.616710     33.743821


 POINT   ATOM  MASS NO  NUCLEAR G FACTOR
   70   70 SI     29      -1.1106000

 TENSOR IN ORIGINAL CARTESIAN AXES
 XX  3.755153E-03 YY -9.012168E-03 ZZ  5.257015E-03 XY  2.874196E-02 XZ -2.598723E-02 YZ  1.614202E-02

 TENSOR IN PRINCIPAL AXIS SYSTEM
 AA  3.347697E-02 BB -4.809049E-02 CC  1.461353E-02

 PRINCIPAL AXES
         X             Y             Z
 A  7.809851E-01  3.258918E-01 -5.327821E-01
 B -5.972086E-01  6.393210E-01 -4.843661E-01
 C  1.827678E-01  6.964648E-01  6.939256E-01

 ANGLES BETWEEN PRINCIPAL AXES AND ORIGINAL AXES (DEGREES)
         X             Y             Z
 A     38.649138     70.980389    122.193624
 B    126.670240     50.258794    118.970951
 C     79.468979     45.855941     46.058340


 POINT   ATOM  MASS NO  NUCLEAR G FACTOR
   71   71 SI     29      -1.1106000

 TENSOR IN ORIGINAL CARTESIAN AXES
 XX -1.274574E-03 YY -6.488111E-03 ZZ  7.762684E-03 XY  6.250881E-03 XZ -4.669941E-03 YZ -6.997079E-03

 TENSOR IN PRINCIPAL AXIS SYSTEM
 AA -2.391101E-03 BB -1.135605E-02 CC  1.374715E-02

 PRINCIPAL AXES
         X             Y             Z
 A  7.911600E-01  2.690294E-01  5.492622E-01
 B -4.427195E-01  8.715237E-01  2.108218E-01
 C -4.219778E-01 -4.099629E-01  8.086193E-01

 ANGLES BETWEEN PRINCIPAL AXES AND ORIGINAL AXES (DEGREES)
         X             Y             Z
 A     37.705948     74.393481     56.683589
 B    116.277525     29.363808     77.829482
 C    114.959514    114.202504     36.038747


 POINT   ATOM  MASS NO  NUCLEAR G FACTOR
   72   72 SI     29      -1.1106000

 TENSOR IN ORIGINAL CARTESIAN AXES
 XX  3.211869E-01 YY  2.494804E-01 ZZ -5.706674E-01 XY  1.394027E-01 XZ -3.559527E-01 YZ  4.235622E-01

 TENSOR IN PRINCIPAL AXIS SYSTEM
 AA  4.238585E-01 BB  4.486234E-01 CC -8.724818E-01

 PRINCIPAL AXES
         X             Y             Z
 A  4.316454E-01  8.752381E-01  2.182673E-01
 B -8.489481E-01  3.123757E-01  4.262728E-01
 C  3.049088E-01 -3.692963E-01  8.778672E-01

 ANGLES BETWEEN PRINCIPAL AXES AND ORIGINAL AXES (DEGREES)
         X             Y             Z
 A     64.427976     28.926837     77.392717
 B    148.097445     71.797540     64.768746
 C     72.247324    111.672224     28.613850


 POINT   ATOM  MASS NO  NUCLEAR G FACTOR
   73   73 SI     29      -1.1106000

 TENSOR IN ORIGINAL CARTESIAN AXES
 XX -3.983884E-03 YY  2.149710E-02 ZZ -1.751322E-02 XY  3.356690E-02 XZ  8.412736E-03 YZ  1.689855E-02

 TENSOR IN PRINCIPAL AXIS SYSTEM
 AA -2.833130E-02 BB  4.985080E-02 CC -2.151950E-02

 PRINCIPAL AXES
         X             Y             Z
 A  6.899110E-01 -6.014008E-01  4.029143E-01
 B  5.395626E-01  7.982758E-01  2.676340E-01
 C -4.825920E-01  3.275385E-02  8.752326E-01

 ANGLES BETWEEN PRINCIPAL AXES AND ORIGINAL AXES (DEGREES)
         X             Y             Z
 A     46.376937    126.970288     66.239509
 B     57.346133     37.034232     74.476477
 C    118.854827     88.123007     28.927482


 POINT   ATOM  MASS NO  NUCLEAR G FACTOR
   74   74 SI     29      -1.1106000

 TENSOR IN ORIGINAL CARTESIAN AXES
 XX  2.324889E-02 YY -2.203266E-02 ZZ -1.216226E-03 XY -5.342583E-02 XZ  6.256991E-02 YZ  8.765063E-02

 TENSOR IN PRINCIPAL AXIS SYSTEM
 AA  5.828396E-02 BB -1.405776E-01 CC  8.229363E-02

 PRINCIPAL AXES
         X             Y             Z
 A  7.798539E-01 -6.191625E-01 -9.200956E-02
 B  4.465534E-01  6.533009E-01 -6.113821E-01
 C  4.386548E-01  4.357015E-01  7.859683E-01

 ANGLES BETWEEN PRINCIPAL AXES AND ORIGINAL AXES (DEGREES)
         X             Y             Z
 A     38.752801    128.254999     95.279226
 B     63.477233     49.209061    127.689502
 C     63.981920     64.170060     38.189674


 POINT   ATOM  MASS NO  NUCLEAR G FACTOR
   75   75 SI     29      -1.1106000

 TENSOR IN ORIGINAL CARTESIAN AXES
 XX  2.749514E-03 YY -6.115015E-03 ZZ  3.365500E-03 XY -1.892336E-02 XZ  2.557237E-02 YZ -2.516742E-02

 TENSOR IN PRINCIPAL AXIS SYSTEM
 AA  4.703802E-02 BB -1.975785E-02 CC -2.728017E-02

 PRINCIPAL AXES
         X             Y             Z
 A  5.831155E-01 -5.078368E-01  6.340963E-01
 B  7.954548E-01  5.154544E-01 -3.186824E-01
 C -1.650090E-01  6.902236E-01  7.045306E-01

 ANGLES BETWEEN PRINCIPAL AXES AND ORIGINAL AXES (DEGREES)
         X             Y             Z
 A     54.330027    120.519846     50.647012
 B     37.301770     58.972168    108.583263
 C     99.497760     46.352191     45.208362


 POINT   ATOM  MASS NO  NUCLEAR G FACTOR
   76   76 SI     29      -1.1106000

 TENSOR IN ORIGINAL CARTESIAN AXES
 XX  4.144363E-03 YY  3.655294E-03 ZZ -7.799658E-03 XY  1.102954E-02 XZ -1.486669E-02 YZ  1.227292E-02

 TENSOR IN PRINCIPAL AXIS SYSTEM
 AA  1.552192E-02 BB  1.116738E-02 CC -2.668930E-02

 PRINCIPAL AXES
         X             Y             Z
 A  8.283489E-01  4.910615E-01 -2.696233E-01
 B -2.222498E-01  7.298534E-01  6.464666E-01
 C  5.142403E-01 -4.755761E-01  7.137116E-01

 ANGLES BETWEEN PRINCIPAL AXES AND ORIGINAL AXES (DEGREES)
         X             Y             Z
 A     34.070499     60.589627    105.641854
 B    102.841212     43.125894     49.724278
 C     59.053309    118.396867     44.462291


 POINT   ATOM  MASS NO  NUCLEAR G FACTOR
   77   77 SI     29      -1.1106000

 TENSOR IN ORIGINAL CARTESIAN AXES
 XX -2.066911E-03 YY -2.550994E-03 ZZ  4.617905E-03 XY -4.304616E-03 XZ -1.514990E-03 YZ -1.235524E-02

 TENSOR IN PRINCIPAL AXIS SYSTEM
 AA -5.231288E-04 BB -1.349794E-02 CC  1.402107E-02

 PRINCIPAL AXES
         X             Y             Z
 A  9.296111E-01 -2.328527E-01 -2.856622E-01
 B  3.576078E-01  7.573295E-01  5.464144E-01
 C  8.910637E-02 -6.101079E-01  7.872918E-01

 ANGLES BETWEEN PRINCIPAL AXES AND ORIGINAL AXES (DEGREES)
         X             Y             Z
 A     21.625734    103.465080    106.598438
 B     69.046644     40.770667     56.878627
 C     84.887801    127.597307     38.066859


 POINT   ATOM  MASS NO  NUCLEAR G FACTOR
   78   78 SI     29      -1.1106000

 TENSOR IN ORIGINAL CARTESIAN AXES
 XX  4.949085E-04 YY  2.622548E-03 ZZ -3.117457E-03 XY  1.242821E-03 XZ -3.149743E-03 YZ  1.636153E-04

 TENSOR IN PRINCIPAL AXIS SYSTEM
 AA  1.503718E-03 BB  3.516278E-03 CC -5.019996E-03

 PRINCIPAL AXES
         X             Y             Z
 A  6.291552E-01 -6.328920E-01 -4.512332E-01
 B  5.861259E-01  7.675847E-01 -2.593648E-01
 C  5.105097E-01 -1.012987E-01  8.538843E-01

 ANGLES BETWEEN PRINCIPAL AXES AND ORIGINAL AXES (DEGREES)
         X             Y             Z
 A     51.012175    129.263811    116.822835
 B     54.117431     39.862508    105.032378
 C     59.302215     95.813962     31.363302


 POINT   ATOM  MASS NO  NUCLEAR G FACTOR
   79   79 SI     29      -1.1106000

 TENSOR IN ORIGINAL CARTESIAN AXES
 XX  1.926884E-03 YY -8.973887E-03 ZZ  7.047003E-03 XY -2.593456E-02 XZ -1.100508E-03 YZ -2.858734E-03

 TENSOR IN PRINCIPAL AXIS SYSTEM
 AA  2.303428E-02 BB -3.025222E-02 CC  7.217948E-03

 PRINCIPAL AXES
         X             Y             Z
 A  7.729657E-01 -6.316294E-01  5.973535E-02
 B  6.272198E-01  7.749367E-01  7.789970E-02
 C -9.549486E-02 -2.274661E-02  9.951700E-01

 ANGLES BETWEEN PRINCIPAL AXES AND ORIGINAL AXES (DEGREES)
         X             Y             Z
 A     39.379038    129.170436     86.575378
 B     51.154698     39.200703     85.532149
 C     95.479802     91.303397      5.633603


 POINT   ATOM  MASS NO  NUCLEAR G FACTOR
   80   80 SI     29      -1.1106000

 TENSOR IN ORIGINAL CARTESIAN AXES
 XX  1.838793E-03 YY  1.879346E-03 ZZ -3.718139E-03 XY -5.340550E-04 XZ -1.712325E-03 YZ -3.267429E-03

 TENSOR IN PRINCIPAL AXIS SYSTEM
 AA  2.218401E-03 BB  3.426350E-03 CC -5.644751E-03

 PRINCIPAL AXES
         X             Y             Z
 A  9.550336E-01 -2.672705E-01 -1.283637E-01
 B  1.853546E-01  8.760918E-01 -4.450920E-01
 C  2.314184E-01  4.012851E-01  8.862369E-01

 ANGLES BETWEEN PRINCIPAL AXES AND ORIGINAL AXES (DEGREES)
         X             Y             Z
 A     17.247357    105.501912     97.375047
 B     79.318194     28.825551    116.429227
 C     76.619408     66.341462     27.595879


 POINT   ATOM  MASS NO  NUCLEAR G FACTOR
   81   81 SI     29      -1.1106000

 TENSOR IN ORIGINAL CARTESIAN AXES
 XX  7.031402E-03 YY -1.365908E-03 ZZ -5.665494E-03 XY  1.067199E-02 XZ -8.600783E-03 YZ  1.354544E-02

 TENSOR IN PRINCIPAL AXIS SYSTEM
 AA  1.433140E-02 BB -2.325930E-02 CC  8.927908E-03

 PRINCIPAL AXES
         X             Y             Z
 A  8.012939E-01  5.953881E-01  5.866118E-02
 B -4.083015E-01  6.158903E-01 -6.737722E-01
 C -4.372848E-01  5.159381E-01  7.366070E-01

 ANGLES BETWEEN PRINCIPAL AXES AND ORIGINAL AXES (DEGREES)
         X             Y             Z
 A     36.746163     53.459697     86.637031
 B    114.098183     51.983358    132.358877
 C    115.930768     58.939821     42.556818


 POINT   ATOM  MASS NO  NUCLEAR G FACTOR
   82   82 SI     29      -1.1106000

 TENSOR IN ORIGINAL CARTESIAN AXES
 XX  2.983299E-03 YY -5.151154E-03 ZZ  2.167855E-03 XY -1.376895E-02 XZ  1.735925E-02 YZ -2.091095E-02

 TENSOR IN PRINCIPAL AXIS SYSTEM
 AA  3.504169E-02 BB -1.229376E-02 CC -2.274793E-02

 PRINCIPAL AXES
         X             Y             Z
 A  5.684785E-01 -5.245010E-01  6.338225E-01
 B  8.215208E-01  4.031102E-01 -4.032440E-01
 C -4.399846E-02  7.499339E-01  6.600479E-01

 ANGLES BETWEEN PRINCIPAL AXES AND ORIGINAL AXES (DEGREES)
         X             Y             Z
 A     55.355808    121.634655     50.667293
 B     34.762680     66.227241    113.781136
 C     92.521740     41.415347     48.696472


 POINT   ATOM  MASS NO  NUCLEAR G FACTOR
   83   83 SI     29      -1.1106000

 TENSOR IN ORIGINAL CARTESIAN AXES
 XX  5.478488E-03 YY -2.903166E-02 ZZ  2.355317E-02 XY  4.019581E-02 XZ -7.369409E-03 YZ  1.924133E-02

 TENSOR IN PRINCIPAL AXIS SYSTEM
 AA  3.485027E-02 BB -6.035689E-02 CC  2.550662E-02

 PRINCIPAL AXES
         X             Y             Z
 A  6.285499E-01  5.585274E-01  5.412690E-01
 B -5.255925E-01  8.179980E-01 -2.337345E-01
 C -5.733041E-01 -1.375731E-01  8.077104E-01

 ANGLES BETWEEN PRINCIPAL AXES AND ORIGINAL AXES (DEGREES)
         X             Y             Z
 A     51.056780     56.045981     57.229933
 B    121.708136     35.115112    103.517035
 C    124.980952     97.907438     36.127170


 POINT   ATOM  MASS NO  NUCLEAR G FACTOR
   84   84 SI     29      -1.1106000

 TENSOR IN ORIGINAL CARTESIAN AXES
 XX  2.160777E-03 YY -5.686220E-03 ZZ  3.525443E-03 XY  2.835767E-03 XZ -6.213801E-03 YZ -2.375664E-03

[...]
  27   27 O    -1.9908    7.6212   -0.2139   0.32350E-03
  28   28 O     6.6468    1.6167   -5.9874   0.80466E-03
  29   29 O    -7.8804    3.5442  -10.2100  -0.13088E-02
  30   30 O     4.1472   -7.3838   -3.1314  -0.25384E-02
  31   31 O    -4.6037    1.3855   -7.2045  -0.83054E-02
  32   32 O     8.8880    8.6921   -4.3272  -0.11159E-02
  33   33 O     4.7947    9.4471   -7.0177  -0.54620E-03
  34   34 O     0.3471   -2.7845   -9.9103  -0.79666E-03
  35   35 O     0.1526   -2.7134   -0.1217  -0.79335E-03
  36   36 O     2.0827    1.5836  -12.8979  -0.72673E-03
  37   37 O    -2.7425    9.3601   -8.8403  -0.10308E+00
  38   38 O     8.0630   -7.3604   -7.1885   0.34183E-03
  39   39 O    -3.4592   -5.2679   -7.6167  -0.30957E-02
  40   40 O     9.9660   -0.3792   -2.1715  -0.10374E+00
  41   41 O     9.5153   -2.3630   -7.4485   0.46630E-03
  42   42 O    -9.2735   -5.1364   -3.9771  -0.65692E-02
  43   43 O    -1.7500    1.7809   -2.4282  -0.12549E-01
  44   44 O    -6.5790    3.0637   -2.6947  -0.20069E+00
  45   45 O    -0.4860   -7.2897  -11.9994  -0.13399E+00
  46   46 O     0.2318   -1.6694   -4.9857  -0.64719E-03
  47   47 O     3.4480    0.9144   -1.9322  -0.73372E-03
  48   48 O     6.8205    9.9558   -0.0422  -0.11016E-01
  49   49 O     0.7723    9.1839   -5.2099  -0.44724E-02
  50   50 O     2.2574    6.1307   -9.4532  -0.63893E-02
  51   51 O    -2.7331    5.6159   -5.3548  -0.64051E-02
  52   52 O    -2.9798    2.6837  -12.1055  -0.54522E-03
  53   53 O     6.0755   -0.6309  -10.5634   0.18814E-02
  54   54 O     9.1839    7.6857   -9.1368  -0.28306E-02
  55   55 O     8.8318   -3.3012  -13.9197  -0.11134E+00
  56   56 O    -0.2597    7.6978  -13.1559  -0.12947E+00
  57   57 O    -6.9257    7.3736   -6.9806   0.33677E-03
  58   58 O     4.0937   -4.4224  -13.6672   0.31722E-01
  59   59 O    -8.2718   -6.3178   -9.4094  -0.42110E-01
  60   60 O    -4.3803   -9.9529   -3.6776  -0.59613E-03
  61   61 O     1.4710   -6.3944   -7.0778  -0.16208E-03
  62   62 O    -7.1818    8.2891  -11.8137  -0.63246E-01
  63   63 O     7.6232   -4.8350   -0.5272  -0.76581E-01
  64   64 O     7.4603    4.6903   -2.0187  -0.10259E+00
  65   65 SI    2.4450   -9.7199    4.6477   0.33708E-01
  66   66 SI    8.9071    3.8062    3.5588  -0.82405E-01
  67   67 SI    1.1309    6.4682    6.3644  -0.75831E-02
  68   68 SI    6.6221    1.3668    6.5397  -0.12997E-01
  69   69 SI    3.8709    4.0085    8.8444   0.17229E-02
  70   70 SI    9.1015    8.7421    8.9106  -0.17498E-01
  71   71 SI    3.4450   -1.0118    4.4579  -0.83570E-02
  72   72 SI    9.5510   -6.7200    4.4163  -0.31100E+00
  73   73 SI    0.6742   -4.4480    6.1406   0.45675E-01
  74   74 SI    6.3626   -8.8356    6.5275  -0.21188E-01
  75   75 SI    3.8444   -6.1089    8.9740   0.48612E-01
  76   76 SI    8.8516   -1.1352    9.3331  -0.18014E-01
  77   77 SI   -7.3928    8.9265    2.2950   0.51167E-02
  78   78 SI   -0.9462    3.2936    4.0271   0.85357E-03
  79   79 SI   -8.8661    6.2759    6.0553  -0.77337E-02
  80   80 SI   -4.1158    0.9438    5.9951  -0.17882E-02
  81   81 SI   -6.4028    3.7828    8.7463  -0.14313E-01
  82   82 SI   -1.4438    9.0229    8.9746  -0.63789E-02
  83   83 SI   -7.3763   -1.2889    3.2979  -0.50455E-01
  84   84 SI    0.0083   -5.4402    1.6222  -0.17590E-02
  85   85 SI   -9.1037   -3.5291    6.6855  -0.11306E-01
  86   86 SI   -2.6466   -7.5686    6.6005   0.28888E+00
  87   87 SI   -6.1739   -6.0741    8.8903   0.31528E-01
  88   88 SI   -1.3418   -1.2286    8.7375  -0.65825E-02
  89   89 SI    1.2346    1.3922   11.3418  -0.28454E-03
  90   90 SI    6.3442    6.4082   11.5883  -0.15540E-01
  91   91 SI    1.2452   -8.6954   11.5590   0.25542E-01
  92   92 SI    6.2430   -3.6621   11.7906   0.11110E-01
  93   93 SI   -8.9537    1.4609   11.6335  -0.25822E-02
  94   94 SI   -4.0000    6.3987   11.5191  -0.91304E-02
  95   95 SI   -8.8707   -8.6332   11.3994  -0.42462E-02
  96   96 SI   -3.8076   -3.5746   11.6389   0.32211E-01
  97   97 SI    5.6167   -7.2714   -0.4382  -0.10826E-01
  98   98 SI    0.0859    5.3790    0.2207   0.82015E-04
  99   99 SI    3.6501    8.8688   14.2145   0.97184E-02
 100  100 SI    8.8637    3.9126   14.1949   0.56998E-03
 101  101 SI    0.8787    6.3941   16.7927   0.37517E-03
 102  102 SI    6.1919    1.4018   16.7109   0.11189E-01
 103  103 SI    3.3515    3.7441   19.2069  -0.88275E-03
 104  104 SI    8.6101    9.0517   19.3938  -0.59568E-02
 105  105 SI    3.5523   -1.1465   14.2379  -0.28115E-02
 106  106 SI    8.9652   -6.2571   14.0746   0.40337E-02
 107  107 SI    1.0977   -3.7379   16.9905   0.55252E-02
 108  108 SI    6.2926   -8.6618   16.6212   0.78519E-02
 109  109 SI    3.9306   -6.1645   19.4129   0.27489E-01
 110  110 SI    8.9261   -0.9075   19.2328   0.24274E-01
 111  111 SI   -6.4919    8.9773   14.2423   0.28988E-02
 112  112 SI   -1.4164    3.8240   14.0156   0.43367E-02
 113  113 SI   -9.2214    6.5710   16.8296  -0.68397E-03
 114  114 SI   -3.7300    1.1706   16.7823   0.68492E-02
 115  115 SI   -6.6993    3.5781   18.8505   0.17821E-01
 116  116 SI   -1.4949    9.0528   19.7451  -0.59035E-03
 117  117 SI   -6.4712   -1.1583   14.2324   0.16730E-01
 118  118 SI   -1.3160   -6.1992   14.2227  -0.14031E-02
 119  119 SI   -9.1425   -3.6816   16.7908   0.10143E-01
 120  120 SI   -3.9559   -8.5312   16.9686   0.15796E-03
 121  121 SI   -6.7364   -6.1438   19.5983   0.41087E-02
 122  122 SI   -1.5828   -1.4415   19.7398  -0.61068E-02
 123  123 SI    1.1765    1.0537  -19.4906   0.62597E-02
 124  124 SI    5.6237    6.6345  -20.0674   0.18057E-03
 125  125 SI    1.8497   -9.0223  -19.3724   0.87663E-02
 126  126 SI    5.8956   -2.9318  -19.6472   0.42992E+00
 127  127 SI   -6.2532    2.1347  -17.0512  -0.12968E-02
 128  128 SI   -4.8017    7.5619  -19.0256  -0.26315E-03
 129  129 SI   -9.4143   -8.6385  -19.3669   0.78417E-02
 130  130 SI   -4.9854   -3.1130  -19.1884  -0.13363E-01
 131  131 SI    7.3528    4.3039  -15.0134   0.43029E-02
 132  132 SI   -8.0882    8.0785  -14.7425  -0.71653E-02
 133  133 SI   -9.9008   -5.5571  -15.0539  -0.15076E+01
 134  134 SI   -4.3931   -2.7389  -13.3513  -0.24268E-02
 135  135 SI    5.3201    2.8916   -3.5200  -0.20586E-02
 136  136 SI   -3.7553   -9.9705   -0.5784   0.11274E-01
 137  137 SI    6.8023   -1.0308   -7.6505   0.48698E-03
 138  138 SI   -5.3702    1.4724  -10.3708  -0.86527E-02
 139  139 SI   -0.6406    1.4386  -14.0073  -0.27071E-03
 140  140 SI    2.7510   -8.5311   -5.4875  -0.78246E-03
 141  141 SI    2.3762   -7.0359  -13.7574  -0.19478E-01
 142  142 SI   -2.1792   -4.7565  -10.1869   0.92256E-03
 143  143 SI   -9.9261   -5.3113   -7.1763  -0.93773E-02
 144  144 SI   -4.0004    2.8694   -4.5364  -0.80893E-01
 145  145 SI    8.5198    7.7097   -1.4568   0.25003E-02
 146  146 SI    2.5287    7.0285   -6.6140  -0.36084E-02
 147  147 SI    1.6178   -3.2820   -7.1627  -0.21232E-03
 148  148 SI   -9.1556    2.2308   -1.0445  -0.16489E+01
 149  149 SI   -8.3831    6.5596   -9.5495  -0.78226E-02
 150  150 SI   -2.2763    9.7847  -11.8899  -0.18826E+01
 151  151 SI    6.2011   -1.6186  -13.4425  -0.27114E-02
 152  152 SI    0.5583   -0.4362   -2.2268  -0.47223E-02
 153  153 SI    2.7679    7.4045  -12.3067  -0.62190E-01
 154  154 SI  -10.1325   -3.4532   -1.5579  -0.33746E-01
 155  155 SI    8.0744    9.7148   -7.0740  -0.73125E-03
 156  156 SI   -4.0934    8.3440   -6.1984  -0.22778E-01
 *******************************************************************************
 HYPERFINE COUPLING CONSTANTS (AN)
 *******************************************************************************
 POINT  ATOM  MASS N0    NUCLEAR      AN (MT)       AN (MHZ)    AN (CM**(-1))
                        G FACTOR
   1    1 O      17   -0.7575220   -0.11900E-01  -0.33349E+00  -0.11124E-04
   2    2 O      17   -0.7575220    0.94682E-01   0.26534E+01   0.88509E-04
   3    3 O      17   -0.7575220    0.37276E+01   0.10447E+03   0.34846E-02
   4    4 O      17   -0.7575220    0.44097E+00   0.12358E+02   0.41223E-03
   5    5 O      17   -0.7575220    0.55482E+00   0.15549E+02   0.51865E-03
   6    6 O      17   -0.7575220   -0.29837E+00  -0.83618E+01  -0.27892E-03
   7    7 O      17   -0.7575220    0.22046E-01   0.61783E+00   0.20608E-04
   8    8 O      17   -0.7575220    0.10715E-02   0.30028E-01   0.10016E-05
   9    9 O      17   -0.7575220   -0.16038E+01  -0.44947E+02  -0.14993E-02
  10   10 O      17   -0.7575220    0.39416E-01   0.11046E+01   0.36846E-04
  11   11 O      17   -0.7575220   -0.31605E-01  -0.88573E+00  -0.29545E-04
  12   12 O      17   -0.7575220    0.13623E+00   0.38179E+01   0.12735E-03
  13   13 O      17   -0.7575220    0.13833E+01   0.38768E+02   0.12932E-02
  14   14 O      17   -0.7575220    0.21644E+01   0.60656E+02   0.20233E-02
  15   15 O      17   -0.7575220   -0.71791E+00  -0.20119E+02  -0.67111E-03
  16   16 O      17   -0.7575220    0.19414E-01   0.54408E+00   0.18149E-04
  17   17 O      17   -0.7575220   -0.18476E-01  -0.51779E+00  -0.17272E-04
  18   18 O      17   -0.7575220   -0.15431E-01  -0.43246E+00  -0.14425E-04
  19   19 O      17   -0.7575220    0.22562E-01   0.63230E+00   0.21091E-04
  20   20 O      17   -0.7575220    0.70863E-01   0.19859E+01   0.66243E-04
  21   21 O      17   -0.7575220    0.23052E+01   0.64603E+02   0.21549E-02
  22   22 O      17   -0.7575220   -0.36805E+00  -0.10315E+02  -0.34406E-03
  23   23 O      17   -0.7575220    0.44299E-02   0.12415E+00   0.41411E-05
  24   24 O      17   -0.7575220    0.94819E-01   0.26573E+01   0.88638E-04
  25   25 O      17   -0.7575220    0.16479E+00   0.46182E+01   0.15405E-03
  26   26 O      17   -0.7575220    0.75167E-01   0.21066E+01   0.70267E-04
  27   27 O      17   -0.7575220   -0.69974E-02  -0.19610E+00  -0.65413E-05
  28   28 O      17   -0.7575220   -0.17405E-01  -0.48778E+00  -0.16271E-04
  29   29 O      17   -0.7575220    0.28311E-01   0.79341E+00   0.26465E-04
  30   30 O      17   -0.7575220    0.54907E-01   0.15388E+01   0.51327E-04
  31   31 O      17   -0.7575220    0.17965E+00   0.50347E+01   0.16794E-03
  32   32 O      17   -0.7575220    0.24137E-01   0.67644E+00   0.22564E-04
  33   33 O      17   -0.7575220    0.11815E-01   0.33111E+00   0.11045E-04
  34   34 O      17   -0.7575220    0.17232E-01   0.48294E+00   0.16109E-04
  35   35 O      17   -0.7575220    0.17161E-01   0.48093E+00   0.16042E-04
  36   36 O      17   -0.7575220    0.15720E-01   0.44054E+00   0.14695E-04
  37   37 O      17   -0.7575220    0.22297E+01   0.62486E+02   0.20843E-02
  38   38 O      17   -0.7575220   -0.73939E-02  -0.20721E+00  -0.69119E-05
  39   39 O      17   -0.7575220    0.66962E-01   0.18766E+01   0.62597E-04
  40   40 O      17   -0.7575220    0.22441E+01   0.62890E+02   0.20978E-02
  41   41 O      17   -0.7575220   -0.10086E-01  -0.28267E+00  -0.94289E-05
  42   42 O      17   -0.7575220    0.14210E+00   0.39823E+01   0.13283E-03
  43   43 O      17   -0.7575220    0.27143E+00   0.76069E+01   0.25374E-03
  44   44 O      17   -0.7575220    0.43410E+01   0.12166E+03   0.40580E-02
  45   45 O      17   -0.7575220    0.28984E+01   0.81227E+02   0.27094E-02
  46   46 O      17   -0.7575220    0.13999E-01   0.39233E+00   0.13087E-04
  47   47 O      17   -0.7575220    0.15871E-01   0.44478E+00   0.14836E-04
  48   48 O      17   -0.7575220    0.23829E+00   0.66780E+01   0.22275E-03
  49   49 O      17   -0.7575220    0.96742E-01   0.27112E+01   0.90435E-04
  50   50 O      17   -0.7575220    0.13820E+00   0.38732E+01   0.12919E-03
  51   51 O      17   -0.7575220    0.13855E+00   0.38828E+01   0.12952E-03
  52   52 O      17   -0.7575220    0.11794E-01   0.33051E+00   0.11025E-04
  53   53 O      17   -0.7575220   -0.40696E-01  -0.11405E+01  -0.38043E-04
  54   54 O      17   -0.7575220    0.61228E-01   0.17159E+01   0.57236E-04
  55   55 O      17   -0.7575220    0.24084E+01   0.67495E+02   0.22514E-02
  56   56 O      17   -0.7575220    0.28005E+01   0.78485E+02   0.26180E-02
  57   57 O      17   -0.7575220   -0.72845E-02  -0.20415E+00  -0.68096E-05
  58   58 O      17   -0.7575220   -0.68617E+00  -0.19230E+02  -0.64144E-03
  59   59 O      17   -0.7575220    0.91086E+00   0.25527E+02   0.85148E-03
  60   60 O      17   -0.7575220    0.12895E-01   0.36137E+00   0.12054E-04
  61   61 O      17   -0.7575220    0.35060E-02   0.98255E-01   0.32774E-05
  62   62 O      17   -0.7575220    0.13681E+01   0.38340E+02   0.12789E-02
  63   63 O      17   -0.7575220    0.16565E+01   0.46423E+02   0.15485E-02
  64   64 O      17   -0.7575220    0.22192E+01   0.62192E+02   0.20745E-02
  65   65 SI     29   -1.1106000   -0.10690E+01  -0.29957E+02  -0.99927E-03
  66   66 SI     29   -1.1106000    0.26133E+01   0.73237E+02   0.24429E-02
  67   67 SI     29   -1.1106000    0.24048E+00   0.67394E+01   0.22480E-03
  68   68 SI     29   -1.1106000    0.41215E+00   0.11551E+02   0.38529E-03
  69   69 SI     29   -1.1106000   -0.54637E-01  -0.15312E+01  -0.51075E-04
  70   70 SI     29   -1.1106000    0.55490E+00   0.15551E+02   0.51872E-03
  71   71 SI     29   -1.1106000    0.26502E+00   0.74273E+01   0.24775E-03
  72   72 SI     29   -1.1106000    0.98627E+01   0.27640E+03   0.92197E-02
  73   73 SI     29   -1.1106000   -0.14485E+01  -0.40593E+02  -0.13540E-02
  74   74 SI     29   -1.1106000    0.67193E+00   0.18831E+02   0.62813E-03
  75   75 SI     29   -1.1106000   -0.15416E+01  -0.43204E+02  -0.14411E-02
  76   76 SI     29   -1.1106000    0.57127E+00   0.16010E+02   0.53403E-03
  77   77 SI     29   -1.1106000   -0.16226E+00  -0.45474E+01  -0.15169E-03
  78   78 SI     29   -1.1106000   -0.27069E-01  -0.75860E+00  -0.25304E-04
  79   79 SI     29   -1.1106000    0.24525E+00   0.68733E+01   0.22927E-03
  80   80 SI     29   -1.1106000    0.56707E-01   0.15892E+01   0.53010E-04
  81   81 SI     29   -1.1106000    0.45392E+00   0.12721E+02   0.42433E-03
  82   82 SI     29   -1.1106000    0.20229E+00   0.56692E+01   0.18911E-03
  83   83 SI     29   -1.1106000    0.16000E+01   0.44841E+02   0.14957E-02
  84   84 SI     29   -1.1106000    0.55781E-01   0.15633E+01   0.52145E-04
  85   85 SI     29   -1.1106000    0.35855E+00   0.10048E+02   0.33517E-03
  86   86 SI     29   -1.1106000   -0.91611E+01  -0.25674E+03  -0.85639E-02
  87   87 SI     29   -1.1106000   -0.99982E+00  -0.28020E+02  -0.93465E-03
  88   88 SI     29   -1.1106000    0.20875E+00   0.58501E+01   0.19514E-03
  89   89 SI     29   -1.1106000    0.90234E-02   0.25288E+00   0.84351E-05
  90   90 SI     29   -1.1106000    0.49282E+00   0.13811E+02   0.46069E-03
  91   91 SI     29   -1.1106000   -0.80999E+00  -0.22700E+02  -0.75719E-03
  92   92 SI     29   -1.1106000   -0.35233E+00  -0.98741E+01  -0.32937E-03
  93   93 SI     29   -1.1106000    0.81887E-01   0.22949E+01   0.76549E-04
  94   94 SI     29   -1.1106000    0.28955E+00   0.81146E+01   0.27067E-03
  95   95 SI     29   -1.1106000    0.13466E+00   0.37738E+01   0.12588E-03
  96   96 SI     29   -1.1106000   -0.10215E+01  -0.28627E+02  -0.95489E-03
  97   97 SI     29   -1.1106000    0.34334E+00   0.96220E+01   0.32095E-03
  98   98 SI     29   -1.1106000   -0.26009E-02  -0.72890E-01  -0.24314E-05
  99   99 SI     29   -1.1106000   -0.30819E+00  -0.86371E+01  -0.28810E-03
 100  100 SI     29   -1.1106000   -0.18076E-01  -0.50656E+00  -0.16897E-04
 101  101 SI     29   -1.1106000   -0.11898E-01  -0.33343E+00  -0.11122E-04
 102  102 SI     29   -1.1106000   -0.35484E+00  -0.99443E+01  -0.33171E-03
 103  103 SI     29   -1.1106000    0.27994E-01   0.78454E+00   0.26169E-04
 104  104 SI     29   -1.1106000    0.18890E+00   0.52940E+01   0.17659E-03
 105  105 SI     29   -1.1106000    0.89160E-01   0.24987E+01   0.83347E-04
 106  106 SI     29   -1.1106000   -0.12792E+00  -0.35849E+01  -0.11958E-03
 107  107 SI     29   -1.1106000   -0.17522E+00  -0.49105E+01  -0.16380E-03
 108  108 SI     29   -1.1106000   -0.24901E+00  -0.69784E+01  -0.23277E-03
 109  109 SI     29   -1.1106000   -0.87174E+00  -0.24430E+02  -0.81491E-03
 110  110 SI     29   -1.1106000   -0.76978E+00  -0.21573E+02  -0.71960E-03
 111  111 SI     29   -1.1106000   -0.91927E-01  -0.25763E+01  -0.85935E-04
 112  112 SI     29   -1.1106000   -0.13753E+00  -0.38542E+01  -0.12856E-03
 113  113 SI     29   -1.1106000    0.21690E-01   0.60787E+00   0.20276E-04
 114  114 SI     29   -1.1106000   -0.21721E+00  -0.60872E+01  -0.20305E-03
 115  115 SI     29   -1.1106000   -0.56516E+00  -0.15839E+02  -0.52832E-03
 116  116 SI     29   -1.1106000    0.18721E-01   0.52467E+00   0.17501E-04
 117  117 SI     29   -1.1106000   -0.53054E+00  -0.14868E+02  -0.49596E-03
 118  118 SI     29   -1.1106000    0.44495E-01   0.12470E+01   0.41594E-04
 119  119 SI     29   -1.1106000   -0.32166E+00  -0.90145E+01  -0.30069E-03
 120  120 SI     29   -1.1106000   -0.50092E-02  -0.14038E+00  -0.46826E-05
 121  121 SI     29   -1.1106000   -0.13030E+00  -0.36516E+01  -0.12180E-03
 122  122 SI     29   -1.1106000    0.19366E+00   0.54274E+01   0.18104E-03
 123  123 SI     29   -1.1106000   -0.19851E+00  -0.55633E+01  -0.18557E-03
 124  124 SI     29   -1.1106000   -0.57264E-02  -0.16048E+00  -0.53531E-05
 125  125 SI     29   -1.1106000   -0.27800E+00  -0.77910E+01  -0.25988E-03
 126  126 SI     29   -1.1106000   -0.13634E+02  -0.38209E+03  -0.12745E-01
 127  127 SI     29   -1.1106000    0.41125E-01   0.11525E+01   0.38445E-04
 128  128 SI     29   -1.1106000    0.83453E-02   0.23388E+00   0.78013E-05
 129  129 SI     29   -1.1106000   -0.24868E+00  -0.69693E+01  -0.23247E-03
 130  130 SI     29   -1.1106000    0.42376E+00   0.11876E+02   0.39614E-03
 131  131 SI     29   -1.1106000   -0.13646E+00  -0.38242E+01  -0.12756E-03
 132  132 SI     29   -1.1106000    0.22723E+00   0.63681E+01   0.21242E-03
 133  133 SI     29   -1.1106000    0.47811E+02   0.13399E+04   0.44694E-01
 134  134 SI     29   -1.1106000    0.76959E-01   0.21568E+01   0.71943E-04
 135  135 SI     29   -1.1106000    0.65285E-01   0.18296E+01   0.61029E-04
 136  136 SI     29   -1.1106000   -0.35753E+00  -0.10020E+02  -0.33422E-03
 137  137 SI     29   -1.1106000   -0.15443E-01  -0.43280E+00  -0.14437E-04
 138  138 SI     29   -1.1106000    0.27440E+00   0.76901E+01   0.25651E-03
 139  139 SI     29   -1.1106000    0.85849E-02   0.24059E+00   0.80253E-05
 140  140 SI     29   -1.1106000    0.24814E-01   0.69540E+00   0.23196E-04
 141  141 SI     29   -1.1106000    0.61769E+00   0.17311E+02   0.57742E-03
 142  142 SI     29   -1.1106000   -0.29257E-01  -0.81992E+00  -0.27350E-04
 143  143 SI     29   -1.1106000    0.29738E+00   0.83340E+01   0.27799E-03
 144  144 SI     29   -1.1106000    0.25653E+01   0.71893E+02   0.23981E-02
 145  145 SI     29   -1.1106000   -0.79291E-01  -0.22221E+01  -0.74122E-04
 146  146 SI     29   -1.1106000    0.11443E+00   0.32069E+01   0.10697E-03
 147  147 SI     29   -1.1106000    0.67333E-02   0.18870E+00   0.62944E-05
 148  148 SI     29   -1.1106000    0.52292E+02   0.14655E+04   0.48883E-01
 149  149 SI     29   -1.1106000    0.24808E+00   0.69523E+01   0.23190E-03
 150  150 SI     29   -1.1106000    0.59703E+02   0.16732E+04   0.55811E-01
 151  151 SI     29   -1.1106000    0.85985E-01   0.24097E+01   0.80379E-04
 152  152 SI     29   -1.1106000    0.14976E+00   0.41969E+01   0.13999E-03
 153  153 SI     29   -1.1106000    0.19722E+01   0.55271E+02   0.18436E-02
 154  154 SI     29   -1.1106000    0.10702E+01   0.29991E+02   0.10004E-02
 155  155 SI     29   -1.1106000    0.23190E-01   0.64989E+00   0.21678E-04
 156  156 SI     29   -1.1106000    0.72236E+00   0.20244E+02   0.67527E-03

  CONVERSION FACTORS 
     AN (MILLI T)        28.554470 * GN * P(SPIN) (BOHR**(-3))
     AN (MHZ)            28.024940 * AN (MILLI T) 
     AN (CM**(-1))   0.3335641E-04 * AN (MHZ) 
 TTTTTTTTTTTTTTTTTTTTTTTTTTTTTT ISOTROPIC   TELAPSE   116393.98 TCPU   116206.97
 ENDPROP   
 TTTTTTTTTTTTTTTTTTTTTTTTTTTTTT END         TELAPSE   116393.98 TCPU   116206.97
 EEEEEEEEEE TERMINATION  DATE 12 05 2015 TIME 19:16:08.5
