
         
 *******************************************************************************
 *                                                                             *
 *                                CRYSTAL09                                    *
 *                              public : 2.0                                   *
 *                      December 10th, 2012 - sequential executable            *
 *                                                                             *
 *                                                                             *
 *                                                                             *
 *                              MAIN AUTHORS                                   *
 *                                                                             *
 *    R. DOVESI(1,10), V.R. SAUNDERS(2), C. ROETTI(1,10), R. ORLANDO (1,3),    *
 *  C.M. ZICOVICH-WILSON(1,4), F. PASCALE(5), B. CIVALLERI(1,10), K. DOLL(6),  *
 *       N.M. HARRISON(2,7), I. J. BUSH(2), Ph. D'ARCO(8), M. LLUNELL(9)       *
 *                                                                             *
 * (1) THEORETICAL CHEMISTRY GROUP - UNIVERSITA' DI TORINO - TORINO (ITALY)    *
 *      http://www.crystal.unito.it                                            *
 * (2) COMPUTATIONAL SCIENCE & ENGINEERING DEPARTMENT - CCLRC DARESBURY (UK)   *
 *     http://www.cse.clrc.ac.uk/cmg/CRYSTAL/                                  *
 * (3) UNIVERSITA' DEL PIEMONTE ORIENTALE - ALESSANDRIA (ITALY)                *
 * (4) UNIVERSIDAD AUTONOMA DEL ESTADO DE MORELOS - CUERNAVACA (MEXICO)        *
 * (5) UNIVERSITE' HENRI POINCARE' - NANCY (FRANCE)                            *
 * (6) MPI FUER FESTKOERPERFORSCHUNG - STUTTGART (GERMANY)                     *
 * (7) IMPERIAL COLLEGE - LONDON (UK)                                          *
 * (8) UNIVERSITE' PIERRE ET MARIE CURIE - PARIS (FRANCE)                      *
 * (9) UNIVERSIDAD DE BARCELONA - BARCELONA (SPAIN)                            *
 *(10) NIS - NANOSTRUCTURED INTERFACES AND SURFACES - TORINO (ITALY)           *
 *     http://www.crystal.unito.it                                             *
 *******************************************************************************
 EEEEEEEEEE STARTING  DATE 11 05 2015 TIME 10:58:35.1

 *******************************************************************************
 Created with astools                                                            
 CRYSTAL - PROPERTIES - TYPE OF CALCULATION :  UNRESTRICTED OPEN SHELL
 *******************************************************************************
 SPIN POLARIZED SYSTEM: SUMMED SPIN DENSITY    0.00000000

 KOHN-SHAM HAMILTONIAN

 (EXCHANGE)[CORRELATION] FUNCTIONAL:(BECKE)[LEE-YANG-PARR]

 NON-LOCAL WEIGHTING FACTOR (EXCHANGE) =           0.9000
 NON-LOCAL WEIGHTING FACTOR [CORRELATION] =        0.8100

 HYBRID EXCHANGE - PERCENTAGE OF FOCK EXCHANGE     5.0000

 SPIN POLARIZED DFT SELECTED

 DIRECT LATTICE VECTOR COMPONENTS (ANGSTROM)
        10.83871    0.00000    0.00000
         0.00000   10.40148    0.00000
         0.00000    0.00000   21.12170

 LATTICE PARAMETERS  (ANGSTROM AND DEGREES) - PRIMITIVE CELL
       A          B          C         ALPHA      BETA     GAMMA        VOLUME
   10.83871   10.40148   21.12170     47.6259   47.6259   47.6259    2381.23230
 *******************************************************************************
 N. OF ATOMS PER CELL      148  COULOMB OVERLAP TOL         (T1) 10** -8
 NUMBER OF SHELLS          776  COULOMB PENETRATION TOL     (T2) 10** -8
 NUMBER OF AO             2752  EXCHANGE OVERLAP TOL        (T3) 10** -8
 N. OF ELECTRONS PER CELL 1736  EXCHANGE PSEUDO OVP (F(G))  (T4) 10** -8
 CORE ELECTRONS PER CELL  1032  EXCHANGE PSEUDO OVP (P(G))  (T5) 10**-16
 N. OF SYMMETRY OPERATORS    1  POLE ORDER IN MONO ZONE                4
 *******************************************************************************
   ATOM N.AT.  SHELL    X(A)      Y(A)      Z(A)      EXAD       N.ELECT.
 *******************************************************************************
    1    8 O     4     2.796     3.671    -7.523   1.900E-01       8.663
    2    8 O     4     1.694    -4.223    -7.184   1.900E-01       8.693
    3    8 O     4    -5.296     3.247    -7.924   1.900E-01       8.831
    4    8 O     4    -2.082     4.726    -9.061   1.900E-01       8.832
    5    8 O     4     1.700     0.587    -7.753   1.900E-01       8.524
    6    8 O     4    -4.905    -5.163    -9.646   1.900E-01       8.643
    7    8 O     4    -1.709    -3.613    -7.395   1.900E-01       8.684
    8    8 O     4     3.827     3.627    -9.892   1.900E-01       8.636
    9    8 O     4    -3.374     1.128    10.264   1.900E-01       8.554
   10    8 O     4    -1.073     0.730    -7.219   1.900E-01       8.590
   11    8 O     4     0.033     0.478    -9.574   1.900E-01       8.741
   12    8 O     4    -4.853    -3.089    -7.281   1.900E-01       8.594
   13    8 O     4    -0.080     4.382    -7.547   1.900E-01       8.633
   14    8 O     4     2.834    -1.708    -7.993   1.900E-01       8.673
   15    8 O     4     1.845    -3.610    -9.642   1.900E-01       8.601
   16    8 O     4     0.281    -1.904    -8.516   1.900E-01       8.832
   17    8 O     4    -3.522    -2.562    -9.608   1.900E-01       8.631
   18    8 O     4     4.975    -1.343    -9.337   1.900E-01       8.724
   19    8 O     4     3.935     1.254    -8.581   1.900E-01       8.635
   20    8 O     4     2.845    -1.633    -4.911   1.900E-01       8.685
   21    8 O     4     1.882     2.436    -3.250   1.900E-01       8.716
   22    8 O     4    -0.437     3.358    -1.102   1.900E-01       8.703
   23    8 O     4     3.859     0.559    -3.903   1.900E-01       8.617
   24    8 O     4    -3.540     1.711    -6.278   1.900E-01       8.649
   25    8 O     4     2.358    -3.555    -2.605   1.900E-01       8.514
   26    8 O     4    -1.909     0.717    -4.512   1.900E-01       8.651
   27    8 O     4     4.192     4.215    -3.066   1.900E-01       8.723
   28    8 O     4     2.882    -4.995    -4.948   1.900E-01       8.681
   29    8 O     4     0.530    -1.064    -6.350   1.900E-01       8.801
   30    8 O     4     0.159    -1.699    -1.570   1.900E-01       8.605
   31    8 O     4    -1.466     5.150    -5.507   1.900E-01       8.769
   32    8 O     4     5.024    -4.032    -4.323   1.900E-01       8.637
   33    8 O     4    -2.667    -1.064    -6.386   1.900E-01       8.693
   34    8 O     4    -4.997    -0.319    -0.953   1.900E-01       8.507
   35    8 O     4    -4.352    -2.929    -0.164   1.900E-01       8.535
   36    8 O     4    -5.312    -1.501    -4.844   1.900E-01       8.582
   37    8 O     4    -4.499    -2.274    -2.642   1.900E-01       8.547
   38    8 O     4    -0.538     0.896    -2.146   1.900E-01       8.748
   39    8 O     4    -4.859     3.648    -1.122   1.900E-01       8.607
   40    8 O     4    -2.951     1.970    -2.283   1.900E-01       8.671
   41    8 O     4     0.674    -0.530    -3.883   1.900E-01       8.590
   42    8 O     4     2.089     0.263    -1.846   1.900E-01       8.580
   43    8 O     4     4.267    -4.845    -0.919   1.900E-01       8.654
   44    8 O     4     0.820     4.927    -3.401   1.900E-01       8.549
   45    8 O     4     1.235     3.540    -5.576   1.900E-01       8.669
   46    8 O     4    -0.717     2.889    -3.777   1.900E-01       8.699
   47    8 O     4     4.148     0.010    -6.464   1.900E-01       8.543
   48    8 O     4     5.213     3.870    -5.533   1.900E-01       8.638
   49    8 O     4    -3.366     3.770    -4.576   1.900E-01       8.682
   50    8 O     4    -3.344    -3.767    -4.431   1.900E-01       8.757
   51    8 O     4    -2.142     5.055    -2.642   1.900E-01       8.735
   52    8 O     4     0.851    -3.140    -4.675   1.900E-01       8.546
   53    8 O     4    -3.262     4.235    -7.185   1.900E-01       8.908
   54    8 O     4    -0.449    -4.356    -0.941   1.900E-01       8.811
   55    8 O     4     4.016    -2.155    -0.946   1.900E-01       8.603
   56    8 O     4     4.098     2.070    -1.797   1.900E-01       8.671
   57   14 SI    6    -0.198     0.199     0.876   6.000E-01      13.977
   58   14 SI    6     2.768     3.184     0.361   6.000E-01      13.970
   59   14 SI    6     1.501     4.570     1.823   6.000E-01      14.115
   60   14 SI    6     4.307     1.995     1.852   6.000E-01      13.992
   61   14 SI    6     0.334     3.283     3.397   6.000E-01      13.975
   62   14 SI    6     3.056     0.745     3.403   6.000E-01      14.040
   63   14 SI    6     1.661     1.989     4.838   6.000E-01      13.995
   64   14 SI    6     4.286     4.520     4.749   6.000E-01      13.993
   65   14 SI    6     0.775    -3.968     0.466   6.000E-01      13.705
   66   14 SI    6     3.679    -1.386     0.937   6.000E-01      13.747
   67   14 SI    6     1.736    -0.575     1.988   6.000E-01      14.001
   68   14 SI    6     4.325    -3.262     2.150   6.000E-01      14.102
   69   14 SI    6     0.340    -1.901     3.355   6.000E-01      14.065
   70   14 SI    6     2.883    -4.634     3.330   6.000E-01      14.006
   71   14 SI    6     1.682    -3.218     4.751   6.000E-01      13.987
   72   14 SI    6     4.392    -0.594     4.775   6.000E-01      13.967
   73   14 SI    6    -5.250     0.332     0.624   6.000E-01      13.809
   74   14 SI    6    -2.496     3.354     0.680   6.000E-01      14.023
   75   14 SI    6    -3.701     4.700     2.071   6.000E-01      14.081
   76   14 SI    6    -1.106     1.989     2.103   6.000E-01      14.152
   77   14 SI    6    -5.172     3.321     3.286   6.000E-01      14.011
   78   14 SI    6    -2.477     0.652     3.476   6.000E-01      14.020
   79   14 SI    6    -3.798     2.083     4.760   6.000E-01      13.994
   80   14 SI    6    -0.968     4.655     4.745   6.000E-01      13.992
   81   14 SI    6    -4.929    -4.161     0.782   6.000E-01      13.333
   82   14 SI    6    -1.196    -2.626    -1.189   6.000E-01      13.281
   83   14 SI    6    -3.645    -0.754     2.042   6.000E-01      13.897
   84   14 SI    6    -1.054    -2.901     1.757   6.000E-01      14.091
   85   14 SI    6    -5.048    -1.943     3.448   6.000E-01      14.083
   86   14 SI    6    -2.212    -4.332     3.272   6.000E-01      14.002
   87   14 SI    6    -3.632    -3.210     4.741   6.000E-01      13.989
   88   14 SI    6    -0.982    -0.584     4.822   6.000E-01      13.968
   89   14 SI    6     0.290     0.755     6.285   6.000E-01      13.983
   90   14 SI    6     3.007     3.242     6.287   6.000E-01      14.001
   91   14 SI    6     0.414    -4.520     6.203   6.000E-01      14.008
   92   14 SI    6     2.996    -1.871     6.154   6.000E-01      13.985
   93   14 SI    6    -5.130     0.765     6.141   6.000E-01      14.011
   94   14 SI    6    -2.357     3.354     6.113   6.000E-01      13.989
   95   14 SI    6    -5.088    -4.518     5.950   6.000E-01      14.003
   96   14 SI    6    -2.328    -1.936     6.197   6.000E-01      13.995
   97   14 SI    6     1.685     4.561     7.735   6.000E-01      13.983
   98   14 SI    6     4.370     1.929     7.696   6.000E-01      13.982
   99   14 SI    6     0.268     3.278     9.211   6.000E-01      14.085
  100   14 SI    6     3.016     0.703     9.245   6.000E-01      14.056
  101   14 SI    6     1.564     1.989   -10.362   6.000E-01      13.614
  102   14 SI    6     4.757     4.692    10.353   6.000E-01      13.377
  103   14 SI    6     1.743    -0.513     7.640   6.000E-01      14.027
  104   14 SI    6     4.449    -3.247     7.359   6.000E-01      14.029
  105   14 SI    6     0.371    -1.865     8.984   6.000E-01      14.178
  106   14 SI    6     3.257    -4.498     8.906   6.000E-01      14.022
  107   14 SI    6     2.238    -2.809    10.054   6.000E-01      13.675
  108   14 SI    6     4.090    -1.217    10.273   6.000E-01      13.637
  109   14 SI    6    -3.724     4.722     7.391   6.000E-01      14.002
  110   14 SI    6    -1.109     2.094     7.680   6.000E-01      14.063
  111   14 SI    6    -5.016     3.418     8.755   6.000E-01      14.066
  112   14 SI    6    -2.393     0.565     8.999   6.000E-01      13.692
  113   14 SI    6    -3.476     2.782    10.366   6.000E-01      13.702
  114   14 SI    6    -1.609     4.242    10.432   6.000E-01      13.589
  115   14 SI    6    -3.736    -0.543     7.454   6.000E-01      14.037
  116   14 SI    6    -0.930    -3.232     7.586   6.000E-01      13.967
  117   14 SI    6    -5.130    -1.883     8.734   6.000E-01      14.064
  118   14 SI    6    -2.351    -4.531     8.905   6.000E-01      14.031
  119   14 SI    6    -3.202    -2.576     9.845   6.000E-01      13.710
  120   14 SI    6    -0.909    -0.440    10.453   6.000E-01      13.708
  121   14 SI    6     3.964     2.908    -8.418   6.000E-01      12.634
  122   14 SI    6     0.229    -0.151    -7.829   6.000E-01      12.647
  123   14 SI    6     1.694    -2.902    -8.186   6.000E-01      12.687
  124   14 SI    6    -3.990     4.033    -8.820   6.000E-01      12.881
  125   14 SI    6    -1.556     5.118    -7.257   6.000E-01      12.503
  126   14 SI    6     3.203    -0.041    -7.780   6.000E-01      12.774
  127   14 SI    6    -4.801    -2.398    -8.648   6.000E-01      12.817
  128   14 SI    6    -0.925    -2.584    -9.864   6.000E-01      13.472
  129   14 SI    6     3.010     1.347    -2.737   6.000E-01      12.726
  130   14 SI    6    -1.502     4.670    -1.140   6.000E-01      12.878
  131   14 SI    6     4.135    -0.646    -4.986   6.000E-01      12.780
  132   14 SI    6    -2.310     0.535    -6.109   6.000E-01      12.695
  133   14 SI    6     1.759    -4.275    -3.961   6.000E-01      12.902
  134   14 SI    6    -1.742    -2.505    -6.024   6.000E-01      13.152
  135   14 SI    6    -4.714    -2.873    -4.152   6.000E-01      12.654
  136   14 SI    6     3.774    -3.588    -1.844   6.000E-01      13.152
  137   14 SI    6    -1.625     1.651    -3.200   6.000E-01      12.605
  138   14 SI    6     0.418     2.123    -0.372   6.000E-01      13.447
  139   14 SI    6     4.343     3.765    -1.454   6.000E-01      12.936
  140   14 SI    6     0.809     3.410    -4.018   6.000E-01      12.678
  141   14 SI    6     1.211    -1.571    -4.993   6.000E-01      12.801
  142   14 SI    6    -3.921     2.262    -0.870   6.000E-01      13.241
  143   14 SI    6    -4.098     3.276    -5.983   6.000E-01      12.581
  144   14 SI    6     0.604    -0.300    -2.292   6.000E-01      12.863
  145   14 SI    6     1.466     4.475    -6.934   6.000E-01      12.513
  146   14 SI    6    -5.111    -1.895    -1.211   6.000E-01      13.036
  147   14 SI    6     4.404     4.878    -4.521   6.000E-01      12.718
  148   14 SI    6    -2.537     5.154    -4.260   6.000E-01      12.602
 *******************************************************************************
 DE(K)                   0.000E+00  ENERGY LEVEL SHIFTING        0.00000
 TOTAL ENERGY -3.0844656269520E+04  CONVERGENCE ON ENER       -1.772E-07
 KIN. ENERGY   3.0736937405953E+04  VIR. COEFF.           1.03676990E+00
 N. OF SCF CYCLES               70  FERMI ENERGY              -0.103E+00
 WEIGHT OF F(I) IN F(I+1)      95
 SHRINK. FACT.(MONKH.)     2  2  2  SHRINKING FACTOR(GILAT NET)        2
 NUMBER OF K POINTS IN THE IBZ   8  CELL VOLUME (A.U.)       16069.35231
 *******************************************************************************

 GCALCO - MAX INDICES DIRECT LATTICE VECTOR    18    19     9
 NO.OF VECTORS CREATED 6999 STARS 1061 RMAX   299.36011 BOHR

 DIMENSIONS  P(G)= 6603048 F(G)= 1176077 P(G),F(G) (IRR) 3310876
 MAX G-VECTOR INDEX FOR 1- AND 2-ELECTRON INTEGRALS  55


 CAPPA:IS1  2;IS2  2;IS3  2; K PTS MONK NET    8; SYMMOPS: K SPACE  2;G SPACE  1


 CAPPA:IS1  6;IS2  6;IS3  3; K PTS MONK NET   56; SYMMOPS: K SPACE  2;G SPACE  1

 *******************************************************************************
 RESTART WITH NEW K POINTS NET
 *******************************************************************************
 POINTS IN THE IBZ                  56 POINTS(GILAT NET)                56
 SHRINK FACTORS(MONK.)         6  6  3 SHRINK FACTOR(GILAT)              6
 *******************************************************************************
 *** K POINTS COORDINATES (OBLIQUE COORDINATES IN UNITS OF IS =  6)
   1-R(  0  0  0)   2-C(  1  0  0)   3-C(  2  0  0)   4-R(  3  0  0)
   5-C(  0  1  0)   6-C(  1  1  0)   7-C(  2  1  0)   8-C(  3  1  0)
   9-C(  4  1  0)  10-C(  5  1  0)  11-C(  0  2  0)  12-C(  1  2  0)
  13-C(  2  2  0)  14-C(  3  2  0)  15-C(  4  2  0)  16-C(  5  2  0)
  17-R(  0  3  0)  18-C(  1  3  0)  19-C(  2  3  0)  20-R(  3  3  0)
  21-C(  0  0  1)  22-C(  1  0  1)  23-C(  2  0  1)  24-C(  3  0  1)
  25-C(  4  0  1)  26-C(  5  0  1)  27-C(  0  1  1)  28-C(  1  1  1)
  29-C(  2  1  1)  30-C(  3  1  1)  31-C(  4  1  1)  32-C(  5  1  1)
  33-C(  0  2  1)  34-C(  1  2  1)  35-C(  2  2  1)  36-C(  3  2  1)
  37-C(  4  2  1)  38-C(  5  2  1)  39-C(  0  3  1)  40-C(  1  3  1)
  41-C(  2  3  1)  42-C(  3  3  1)  43-C(  4  3  1)  44-C(  5  3  1)
  45-C(  0  4  1)  46-C(  1  4  1)  47-C(  2  4  1)  48-C(  3  4  1)
  49-C(  4  4  1)  50-C(  5  4  1)  51-C(  0  5  1)  52-C(  1  5  1)
  53-C(  2  5  1)  54-C(  3  5  1)  55-C(  4  5  1)  56-C(  5  5  1)

 FERMI ENERGY AND DENSITY MATRIX CALCULATION ON COMPUTED EIGENVECTORS
 DENSITY MATRIX AT SCF CYCLE ( 70+1)


    ALPHA      ELECTRONS
 INSULATING STATE
 TOP OF VALENCE BANDS -    BAND    868; K   20; EIG -1.0322853E-01 AU
 TOP OF VALENCE BANDS -    BAND    868; K    1; EIG -1.0611970E-01 AU
 BOTTOM OF VIRTUAL BANDS - BAND    869; K   23; EIG -1.0305105E-01 AU
 BOTTOM OF VIRTUAL BANDS - BAND    869; K    1; EIG -1.0097333E-01 AU

    BETA       ELECTRONS
 INSULATING STATE
 TOP OF VALENCE BANDS -    BAND    868; K   20; EIG -1.0322852E-01 AU
 TOP OF VALENCE BANDS -    BAND    868; K    1; EIG -1.0611970E-01 AU
 BOTTOM OF VIRTUAL BANDS - BAND    869; K   23; EIG -1.0305106E-01 AU
 BOTTOM OF VIRTUAL BANDS - BAND    869; K    1; EIG -1.0097333E-01 AU

 CORE DENSITY MATRIX CALCULATION
 TTTTTTTTTTTTTTTTTTTTTTTTTTTTTT NEWK        TELAPSE   100579.55 TCPU   100419.62
 TTTTTTTTTTTTTTTTTTTTTTTTTTTTTT SETPRINT    TELAPSE   100579.55 TCPU   100419.62

 *******************************************************************************
 HYPERFINE ELECTRON-NUCLEAR SPIN INTERACTION TENSOR
 ANISOTROPIC COMPONENTS - THE TENSOR IS TRACELESS
 *******************************************************************************


 POINT   ATOM  MASS NO  NUCLEAR G FACTOR
    1    1 O      17      -0.7575220

 TENSOR IN ORIGINAL CARTESIAN AXES
 XX -2.130581E-09 YY  5.201243E-10 ZZ  1.610456E-09 XY -1.253303E-10 XZ -7.665095E-10 YZ -1.044777E-09

 TENSOR IN PRINCIPAL AXIS SYSTEM
 AA -2.130581E-09 BB  5.201243E-10 CC  1.610456E-09

 PRINCIPAL AXES
         X             Y             Z
 A  1.000000E+00  0.000000E+00  0.000000E+00
 B  0.000000E+00  1.000000E+00  0.000000E+00
 C  0.000000E+00  0.000000E+00  1.000000E+00

 ANGLES BETWEEN PRINCIPAL AXES AND ORIGINAL AXES (DEGREES)
         X             Y             Z
 A      0.000000     90.000000     90.000000
 B     90.000000      0.000000     90.000000
 C     90.000000     90.000000      0.000000


 POINT   ATOM  MASS NO  NUCLEAR G FACTOR
    2    2 O      17      -0.7575220

 TENSOR IN ORIGINAL CARTESIAN AXES
 XX -1.494309E-09 YY  2.964732E-09 ZZ -1.470423E-09 XY -1.531662E-10 XZ -1.827776E-09 YZ  1.567856E-09

 TENSOR IN PRINCIPAL AXIS SYSTEM
 AA -1.494309E-09 BB  2.964732E-09 CC -1.470423E-09

 PRINCIPAL AXES
         X             Y             Z
 A  1.000000E+00  0.000000E+00  0.000000E+00
 B  0.000000E+00  1.000000E+00  0.000000E+00
 C  0.000000E+00  0.000000E+00  1.000000E+00

 ANGLES BETWEEN PRINCIPAL AXES AND ORIGINAL AXES (DEGREES)
         X             Y             Z
 A      0.000000     90.000000     90.000000
 B     90.000000      0.000000     90.000000
 C     90.000000     90.000000      0.000000


 POINT   ATOM  MASS NO  NUCLEAR G FACTOR
    3    3 O      17      -0.7575220

 TENSOR IN ORIGINAL CARTESIAN AXES
 XX  2.465344E-09 YY -1.443841E-09 ZZ -1.021504E-09 XY  5.968490E-10 XZ -8.909596E-10 YZ  1.671791E-09

 TENSOR IN PRINCIPAL AXIS SYSTEM
 AA  2.465344E-09 BB -1.443841E-09 CC -1.021504E-09

 PRINCIPAL AXES
         X             Y             Z
 A  1.000000E+00  0.000000E+00  0.000000E+00
 B  0.000000E+00  1.000000E+00  0.000000E+00
 C  0.000000E+00  0.000000E+00  1.000000E+00

 ANGLES BETWEEN PRINCIPAL AXES AND ORIGINAL AXES (DEGREES)
         X             Y             Z
 A      0.000000     90.000000     90.000000
 B     90.000000      0.000000     90.000000
 C     90.000000     90.000000      0.000000


 POINT   ATOM  MASS NO  NUCLEAR G FACTOR
    4    4 O      17      -0.7575220

 TENSOR IN ORIGINAL CARTESIAN AXES
 XX  1.594870E-09 YY  1.296761E-09 ZZ -2.891631E-09 XY -3.200175E-09 XZ -4.669710E-10 YZ -1.595938E-09

 TENSOR IN PRINCIPAL AXIS SYSTEM
 AA  1.594870E-09 BB  1.296761E-09 CC -2.891631E-09

 PRINCIPAL AXES
         X             Y             Z
 A  1.000000E+00  0.000000E+00  0.000000E+00
 B  0.000000E+00  1.000000E+00  0.000000E+00
 C  0.000000E+00  0.000000E+00  1.000000E+00

 ANGLES BETWEEN PRINCIPAL AXES AND ORIGINAL AXES (DEGREES)
         X             Y             Z
 A      0.000000     90.000000     90.000000
 B     90.000000      0.000000     90.000000
 C     90.000000     90.000000      0.000000


 POINT   ATOM  MASS NO  NUCLEAR G FACTOR
    5    5 O      17      -0.7575220

 TENSOR IN ORIGINAL CARTESIAN AXES
 XX -1.553874E-09 YY  9.397137E-10 ZZ  6.141599E-10 XY -8.300976E-10 XZ  1.184588E-09 YZ  7.048160E-10

 TENSOR IN PRINCIPAL AXIS SYSTEM
 AA -1.553874E-09 BB  9.397137E-10 CC  6.141599E-10

 PRINCIPAL AXES
         X             Y             Z
 A  1.000000E+00  0.000000E+00  0.000000E+00
 B  0.000000E+00  1.000000E+00  0.000000E+00
 C  0.000000E+00  0.000000E+00  1.000000E+00

 ANGLES BETWEEN PRINCIPAL AXES AND ORIGINAL AXES (DEGREES)
         X             Y             Z
 A      0.000000     90.000000     90.000000
 B     90.000000      0.000000     90.000000
 C     90.000000     90.000000      0.000000


 POINT   ATOM  MASS NO  NUCLEAR G FACTOR
    6    6 O      17      -0.7575220

 TENSOR IN ORIGINAL CARTESIAN AXES
 XX -9.281688E-10 YY  2.658522E-09 ZZ -1.730353E-09 XY -7.562797E-11 XZ -2.662186E-09 YZ  1.484290E-10

 TENSOR IN PRINCIPAL AXIS SYSTEM
 AA -9.281688E-10 BB  2.658522E-09 CC -1.730353E-09

 PRINCIPAL AXES
         X             Y             Z
 A  1.000000E+00  0.000000E+00  0.000000E+00
 B  0.000000E+00  1.000000E+00  0.000000E+00
 C  0.000000E+00  0.000000E+00  1.000000E+00

 ANGLES BETWEEN PRINCIPAL AXES AND ORIGINAL AXES (DEGREES)
         X             Y             Z
 A      0.000000     90.000000     90.000000
 B     90.000000      0.000000     90.000000
 C     90.000000     90.000000      0.000000


 POINT   ATOM  MASS NO  NUCLEAR G FACTOR
    7    7 O      17      -0.7575220

 TENSOR IN ORIGINAL CARTESIAN AXES
 XX -3.706723E-09 YY  3.394242E-10 ZZ  3.367299E-09 XY  2.485252E-10 XZ  1.203496E-09 YZ -2.122713E-09

 TENSOR IN PRINCIPAL AXIS SYSTEM
 AA -3.706723E-09 BB  3.394242E-10 CC  3.367299E-09

 PRINCIPAL AXES
         X             Y             Z
 A  1.000000E+00  0.000000E+00  0.000000E+00
 B  0.000000E+00  1.000000E+00  0.000000E+00
 C  0.000000E+00  0.000000E+00  1.000000E+00

 ANGLES BETWEEN PRINCIPAL AXES AND ORIGINAL AXES (DEGREES)
         X             Y             Z
 A      0.000000     90.000000     90.000000
 B     90.000000      0.000000     90.000000
 C     90.000000     90.000000      0.000000


 POINT   ATOM  MASS NO  NUCLEAR G FACTOR
    8    8 O      17      -0.7575220

 TENSOR IN ORIGINAL CARTESIAN AXES
 XX  2.291128E-10 YY  1.538981E-09 ZZ -1.768094E-09 XY  3.942390E-09 XZ  3.004527E-09 YZ  1.491901E-09

 TENSOR IN PRINCIPAL AXIS SYSTEM
 AA  2.291128E-10 BB  1.538981E-09 CC -1.768094E-09

 PRINCIPAL AXES
         X             Y             Z
 A  1.000000E+00  0.000000E+00  0.000000E+00
 B  0.000000E+00  1.000000E+00  0.000000E+00
 C  0.000000E+00  0.000000E+00  1.000000E+00

 ANGLES BETWEEN PRINCIPAL AXES AND ORIGINAL AXES (DEGREES)
         X             Y             Z
 A      0.000000     90.000000     90.000000
 B     90.000000      0.000000     90.000000
 C     90.000000     90.000000      0.000000


 POINT   ATOM  MASS NO  NUCLEAR G FACTOR
    9    9 O      17      -0.7575220

 TENSOR IN ORIGINAL CARTESIAN AXES
 XX  2.027171E-09 YY  1.347184E-09 ZZ -3.374355E-09 XY -1.174340E-09 XZ  1.790103E-09 YZ  2.051034E-09

 TENSOR IN PRINCIPAL AXIS SYSTEM
 AA  2.027171E-09 BB  1.347184E-09 CC -3.374355E-09

 PRINCIPAL AXES
         X             Y             Z
 A  1.000000E+00  0.000000E+00  0.000000E+00
 B  0.000000E+00  1.000000E+00  0.000000E+00
 C  0.000000E+00  0.000000E+00  1.000000E+00

 ANGLES BETWEEN PRINCIPAL AXES AND ORIGINAL AXES (DEGREES)
         X             Y             Z
 A      0.000000     90.000000     90.000000
 B     90.000000      0.000000     90.000000
 C     90.000000     90.000000      0.000000


 POINT   ATOM  MASS NO  NUCLEAR G FACTOR
   10   10 O      17      -0.7575220

 TENSOR IN ORIGINAL CARTESIAN AXES
 XX -1.196202E-09 YY  2.068042E-09 ZZ -8.718407E-10 XY -2.077738E-09 XZ -3.143929E-09 YZ  5.384808E-10

 TENSOR IN PRINCIPAL AXIS SYSTEM
 AA -1.196202E-09 BB  2.068042E-09 CC -8.718407E-10

 PRINCIPAL AXES
         X             Y             Z
 A  1.000000E+00  0.000000E+00  0.000000E+00
 B  0.000000E+00  1.000000E+00  0.000000E+00
 C  0.000000E+00  0.000000E+00  1.000000E+00

 ANGLES BETWEEN PRINCIPAL AXES AND ORIGINAL AXES (DEGREES)
         X             Y             Z
 A      0.000000     90.000000     90.000000
 B     90.000000      0.000000     90.000000
 C     90.000000     90.000000      0.000000


 POINT   ATOM  MASS NO  NUCLEAR G FACTOR
   11   11 O      17      -0.7575220

 TENSOR IN ORIGINAL CARTESIAN AXES
 XX  6.689669E-09 YY  2.513995E-10 ZZ -6.941068E-09 XY  1.047922E-08 XZ  6.554240E-09 YZ  6.296634E-09

 TENSOR IN PRINCIPAL AXIS SYSTEM
 AA  1.772642E-08 BB -7.491989E-09 CC -1.023444E-08

 PRINCIPAL AXES
         X             Y             Z
 A  7.554061E-01  5.581906E-01  3.431980E-01
 B -5.942857E-01  8.042540E-01  0.000000E+00
 C -2.760184E-01 -2.039577E-01  9.392631E-01

 ANGLES BETWEEN PRINCIPAL AXES AND ORIGINAL AXES (DEGREES)
         X             Y             Z
 A     40.939134     56.069243     69.928164
 B    126.461727     36.461727     90.000000
 C    106.022713    101.768489     20.071836


 POINT   ATOM  MASS NO  NUCLEAR G FACTOR
   12   12 O      17      -0.7575220

 TENSOR IN ORIGINAL CARTESIAN AXES
 XX -1.005776E-09 YY -2.077380E-10 ZZ  1.213514E-09 XY -2.269225E-09 XZ -6.226681E-10 YZ  3.330120E-09

 TENSOR IN PRINCIPAL AXIS SYSTEM
 AA -1.005776E-09 BB -2.077380E-10 CC  1.213514E-09

 PRINCIPAL AXES
         X             Y             Z
 A  1.000000E+00  0.000000E+00  0.000000E+00
 B  0.000000E+00  1.000000E+00  0.000000E+00
 C  0.000000E+00  0.000000E+00  1.000000E+00

 ANGLES BETWEEN PRINCIPAL AXES AND ORIGINAL AXES (DEGREES)
         X             Y             Z
 A      0.000000     90.000000     90.000000
 B     90.000000      0.000000     90.000000
 C     90.000000     90.000000      0.000000


 POINT   ATOM  MASS NO  NUCLEAR G FACTOR
   13   13 O      17      -0.7575220

 TENSOR IN ORIGINAL CARTESIAN AXES
 XX -9.117801E-10 YY -5.156528E-10 ZZ  1.427433E-09 XY -3.787730E-10 XZ -1.256174E-10 YZ -1.156462E-09

 TENSOR IN PRINCIPAL AXIS SYSTEM
 AA -9.117801E-10 BB -5.156528E-10 CC  1.427433E-09

 PRINCIPAL AXES
         X             Y             Z
 A  1.000000E+00  0.000000E+00  0.000000E+00
 B  0.000000E+00  1.000000E+00  0.000000E+00
 C  0.000000E+00  0.000000E+00  1.000000E+00

 ANGLES BETWEEN PRINCIPAL AXES AND ORIGINAL AXES (DEGREES)
         X             Y             Z
 A      0.000000     90.000000     90.000000
 B     90.000000      0.000000     90.000000
 C     90.000000     90.000000      0.000000


 POINT   ATOM  MASS NO  NUCLEAR G FACTOR
   14   14 O      17      -0.7575220

 TENSOR IN ORIGINAL CARTESIAN AXES
 XX -2.300198E-10 YY  8.798268E-10 ZZ -6.498070E-10 XY  4.173032E-10 XZ -3.006526E-09 YZ  4.374903E-09

 TENSOR IN PRINCIPAL AXIS SYSTEM
 AA -2.300198E-10 BB  8.798268E-10 CC -6.498070E-10

 PRINCIPAL AXES
         X             Y             Z
 A  1.000000E+00  0.000000E+00  0.000000E+00
 B  0.000000E+00  1.000000E+00  0.000000E+00
 C  0.000000E+00  0.000000E+00  1.000000E+00

 ANGLES BETWEEN PRINCIPAL AXES AND ORIGINAL AXES (DEGREES)
         X             Y             Z
 A      0.000000     90.000000     90.000000
 B     90.000000      0.000000     90.000000
 C     90.000000     90.000000      0.000000


 POINT   ATOM  MASS NO  NUCLEAR G FACTOR
   15   15 O      17      -0.7575220

 TENSOR IN ORIGINAL CARTESIAN AXES
 XX  9.064734E-10 YY -4.666408E-09 ZZ  3.759935E-09 XY -2.119277E-09 XZ -6.238934E-10 YZ -7.104024E-10

 TENSOR IN PRINCIPAL AXIS SYSTEM
 AA  9.064734E-10 BB -4.666408E-09 CC  3.759935E-09

 PRINCIPAL AXES
         X             Y             Z
 A  1.000000E+00  0.000000E+00  0.000000E+00
 B  0.000000E+00  1.000000E+00  0.000000E+00
 C  0.000000E+00  0.000000E+00  1.000000E+00

 ANGLES BETWEEN PRINCIPAL AXES AND ORIGINAL AXES (DEGREES)
         X             Y             Z
 A      0.000000     90.000000     90.000000
 B     90.000000      0.000000     90.000000
 C     90.000000     90.000000      0.000000


 POINT   ATOM  MASS NO  NUCLEAR G FACTOR
   16   16 O      17      -0.7575220

 TENSOR IN ORIGINAL CARTESIAN AXES
 XX  5.063213E-09 YY -5.898173E-09 ZZ  8.349602E-10 XY  7.484331E-11 XZ  6.785277E-09 YZ -8.684176E-10

 TENSOR IN PRINCIPAL AXIS SYSTEM
 AA  5.063213E-09 BB -5.898173E-09 CC  8.349602E-10

 PRINCIPAL AXES
         X             Y             Z
 A  1.000000E+00  0.000000E+00  0.000000E+00
 B  0.000000E+00  1.000000E+00  0.000000E+00
 C  0.000000E+00  0.000000E+00  1.000000E+00

 ANGLES BETWEEN PRINCIPAL AXES AND ORIGINAL AXES (DEGREES)
         X             Y             Z
 A      0.000000     90.000000     90.000000
 B     90.000000      0.000000     90.000000
 C     90.000000     90.000000      0.000000


 POINT   ATOM  MASS NO  NUCLEAR G FACTOR
   17   17 O      17      -0.7575220

 TENSOR IN ORIGINAL CARTESIAN AXES
 XX -4.432512E-09 YY  3.180271E-09 ZZ  1.252240E-09 XY  7.446488E-09 XZ -1.894450E-09 YZ -5.175112E-09

 TENSOR IN PRINCIPAL AXIS SYSTEM
 AA -4.432512E-09 BB  3.180271E-09 CC  1.252240E-09

 PRINCIPAL AXES
         X             Y             Z
 A  1.000000E+00  0.000000E+00  0.000000E+00
 B  0.000000E+00  1.000000E+00  0.000000E+00
 C  0.000000E+00  0.000000E+00  1.000000E+00

 ANGLES BETWEEN PRINCIPAL AXES AND ORIGINAL AXES (DEGREES)
         X             Y             Z
 A      0.000000     90.000000     90.000000
 B     90.000000      0.000000     90.000000
 C     90.000000     90.000000      0.000000


 POINT   ATOM  MASS NO  NUCLEAR G FACTOR
   18   18 O      17      -0.7575220

 TENSOR IN ORIGINAL CARTESIAN AXES
 XX  2.025013E-09 YY -3.514009E-10 ZZ -1.673612E-09 XY  1.323914E-10 XZ -1.348700E-09 YZ -6.574194E-10

 TENSOR IN PRINCIPAL AXIS SYSTEM
 AA  2.025013E-09 BB -3.514009E-10 CC -1.673612E-09

 PRINCIPAL AXES
         X             Y             Z
 A  1.000000E+00  0.000000E+00  0.000000E+00
 B  0.000000E+00  1.000000E+00  0.000000E+00
 C  0.000000E+00  0.000000E+00  1.000000E+00

 ANGLES BETWEEN PRINCIPAL AXES AND ORIGINAL AXES (DEGREES)
         X             Y             Z
 A      0.000000     90.000000     90.000000
 B     90.000000      0.000000     90.000000
 C     90.000000     90.000000      0.000000


 POINT   ATOM  MASS NO  NUCLEAR G FACTOR
   19   19 O      17      -0.7575220

 TENSOR IN ORIGINAL CARTESIAN AXES
 XX -3.764938E-09 YY  1.946201E-09 ZZ  1.818737E-09 XY -7.686836E-10 XZ -7.787103E-10 YZ -1.715027E-09

 TENSOR IN PRINCIPAL AXIS SYSTEM
 AA -3.764938E-09 BB  1.946201E-09 CC  1.818737E-09

 PRINCIPAL AXES
         X             Y             Z
 A  1.000000E+00  0.000000E+00  0.000000E+00
 B  0.000000E+00  1.000000E+00  0.000000E+00
 C  0.000000E+00  0.000000E+00  1.000000E+00

 ANGLES BETWEEN PRINCIPAL AXES AND ORIGINAL AXES (DEGREES)
         X             Y             Z
 A      0.000000     90.000000     90.000000
 B     90.000000      0.000000     90.000000
 C     90.000000     90.000000      0.000000


 POINT   ATOM  MASS NO  NUCLEAR G FACTOR
   20   20 O      17      -0.7575220

 TENSOR IN ORIGINAL CARTESIAN AXES
 XX  2.662790E-09 YY -1.878176E-09 ZZ -7.846147E-10 XY  2.822685E-10 XZ  1.276925E-09 YZ  1.754506E-09

 TENSOR IN PRINCIPAL AXIS SYSTEM
 AA  2.662790E-09 BB -1.878176E-09 CC -7.846147E-10

 PRINCIPAL AXES
         X             Y             Z
 A  1.000000E+00  0.000000E+00  0.000000E+00
 B  0.000000E+00  1.000000E+00  0.000000E+00
 C  0.000000E+00  0.000000E+00  1.000000E+00

 ANGLES BETWEEN PRINCIPAL AXES AND ORIGINAL AXES (DEGREES)
         X             Y             Z
 A      0.000000     90.000000     90.000000
 B     90.000000      0.000000     90.000000
 C     90.000000     90.000000      0.000000


 POINT   ATOM  MASS NO  NUCLEAR G FACTOR
   21   21 O      17      -0.7575220

 TENSOR IN ORIGINAL CARTESIAN AXES
 XX  9.046601E-11 YY -3.753534E-10 ZZ  2.848874E-10 XY -5.070848E-10 XZ  5.076652E-10 YZ  1.776856E-09

 TENSOR IN PRINCIPAL AXIS SYSTEM
 AA  9.046601E-11 BB -3.753534E-10 CC  2.848874E-10

 PRINCIPAL AXES
         X             Y             Z
 A  1.000000E+00  0.000000E+00  0.000000E+00
 B  0.000000E+00  1.000000E+00  0.000000E+00
 C  0.000000E+00  0.000000E+00  1.000000E+00

 ANGLES BETWEEN PRINCIPAL AXES AND ORIGINAL AXES (DEGREES)
         X             Y             Z
 A      0.000000     90.000000     90.000000
 B     90.000000      0.000000     90.000000
 C     90.000000     90.000000      0.000000


 POINT   ATOM  MASS NO  NUCLEAR G FACTOR
   22   22 O      17      -0.7575220

 TENSOR IN ORIGINAL CARTESIAN AXES
 XX  1.119808E-09 YY  2.226453E-10 ZZ -1.342453E-09 XY -2.780267E-09 XZ -3.724764E-10 YZ  4.490300E-09

 TENSOR IN PRINCIPAL AXIS SYSTEM
 AA  1.119808E-09 BB  2.226453E-10 CC -1.342453E-09

 PRINCIPAL AXES
         X             Y             Z
 A  1.000000E+00  0.000000E+00  0.000000E+00
 B  0.000000E+00  1.000000E+00  0.000000E+00
 C  0.000000E+00  0.000000E+00  1.000000E+00

 ANGLES BETWEEN PRINCIPAL AXES AND ORIGINAL AXES (DEGREES)
         X             Y             Z
 A      0.000000     90.000000     90.000000
 B     90.000000      0.000000     90.000000
 C     90.000000     90.000000      0.000000


 POINT   ATOM  MASS NO  NUCLEAR G FACTOR
   23   23 O      17      -0.7575220

 TENSOR IN ORIGINAL CARTESIAN AXES
 XX  8.414733E-10 YY -1.912037E-09 ZZ  1.070564E-09 XY  3.242150E-12 XZ  6.415232E-11 YZ -6.494023E-10

 TENSOR IN PRINCIPAL AXIS SYSTEM
 AA  8.414733E-10 BB -1.912037E-09 CC  1.070564E-09

 PRINCIPAL AXES
         X             Y             Z
 A  1.000000E+00  0.000000E+00  0.000000E+00
 B  0.000000E+00  1.000000E+00  0.000000E+00
 C  0.000000E+00  0.000000E+00  1.000000E+00

 ANGLES BETWEEN PRINCIPAL AXES AND ORIGINAL AXES (DEGREES)
         X             Y             Z
 A      0.000000     90.000000     90.000000
 B     90.000000      0.000000     90.000000
 C     90.000000     90.000000      0.000000


 POINT   ATOM  MASS NO  NUCLEAR G FACTOR
   24   24 O      17      -0.7575220

 TENSOR IN ORIGINAL CARTESIAN AXES
 XX  2.534130E-09 YY -6.760151E-10 ZZ -1.858115E-09 XY -1.589849E-10 XZ  3.975443E-09 YZ  1.411062E-09

 TENSOR IN PRINCIPAL AXIS SYSTEM
 AA  2.534130E-09 BB -6.760151E-10 CC -1.858115E-09

 PRINCIPAL AXES
         X             Y             Z
 A  1.000000E+00  0.000000E+00  0.000000E+00
 B  0.000000E+00  1.000000E+00  0.000000E+00
 C  0.000000E+00  0.000000E+00  1.000000E+00

 ANGLES BETWEEN PRINCIPAL AXES AND ORIGINAL AXES (DEGREES)
         X             Y             Z
 A      0.000000     90.000000     90.000000
 B     90.000000      0.000000     90.000000
 C     90.000000     90.000000      0.000000


 POINT   ATOM  MASS NO  NUCLEAR G FACTOR
   25   25 O      17      -0.7575220

 TENSOR IN ORIGINAL CARTESIAN AXES
 XX -4.504053E-08 YY  2.205533E-08 ZZ  2.298520E-08 XY -5.470793E-09 XZ  1.195776E-08 YZ  3.006006E-09

 TENSOR IN PRINCIPAL AXIS SYSTEM
 AA -4.757962E-08 BB  2.249847E-08 CC  2.508115E-08

 PRINCIPAL AXES
         X             Y             Z
 A  9.822545E-01  7.956456E-02 -1.698401E-01
 B -8.073754E-02  9.967354E-01  0.000000E+00
 C  1.692857E-01  1.371248E-02  9.854716E-01

 ANGLES BETWEEN PRINCIPAL AXES AND ORIGINAL AXES (DEGREES)
         X             Y             Z
 A     10.810024     85.436463     99.778525
 B     94.630961      4.630961     90.000000
 C     80.253710     89.214308      9.778525


 POINT   ATOM  MASS NO  NUCLEAR G FACTOR
   26   26 O      17      -0.7575220

 TENSOR IN ORIGINAL CARTESIAN AXES
 XX -1.096141E-09 YY  2.361024E-09 ZZ -1.264883E-09 XY  1.650366E-09 XZ -2.336997E-09 YZ -3.780328E-10

 TENSOR IN PRINCIPAL AXIS SYSTEM
 AA -1.096141E-09 BB  2.361024E-09 CC -1.264883E-09

 PRINCIPAL AXES
         X             Y             Z
 A  1.000000E+00  0.000000E+00  0.000000E+00
 B  0.000000E+00  1.000000E+00  0.000000E+00
 C  0.000000E+00  0.000000E+00  1.000000E+00

 ANGLES BETWEEN PRINCIPAL AXES AND ORIGINAL AXES (DEGREES)
         X             Y             Z
 A      0.000000     90.000000     90.000000
 B     90.000000      0.000000     90.000000
 C     90.000000     90.000000      0.000000


 POINT   ATOM  MASS NO  NUCLEAR G FACTOR
   27   27 O      17      -0.7575220

 TENSOR IN ORIGINAL CARTESIAN AXES
 XX  1.099607E-10 YY -2.301314E-09 ZZ  2.191353E-09 XY -1.379393E-09 XZ  1.137338E-09 YZ -6.812585E-10

 TENSOR IN PRINCIPAL AXIS SYSTEM
 AA  1.099607E-10 BB -2.301314E-09 CC  2.191353E-09

 PRINCIPAL AXES
         X             Y             Z
 A  1.000000E+00  0.000000E+00  0.000000E+00
 B  0.000000E+00  1.000000E+00  0.000000E+00
 C  0.000000E+00  0.000000E+00  1.000000E+00

 ANGLES BETWEEN PRINCIPAL AXES AND ORIGINAL AXES (DEGREES)
         X             Y             Z
 A      0.000000     90.000000     90.000000
 B     90.000000      0.000000     90.000000
 C     90.000000     90.000000      0.000000


 POINT   ATOM  MASS NO  NUCLEAR G FACTOR
   28   28 O      17      -0.7575220

 TENSOR IN ORIGINAL CARTESIAN AXES
 XX -4.511953E-09 YY -8.649065E-10 ZZ  5.376860E-09 XY -2.114972E-09 XZ  1.565804E-09 YZ -9.693775E-11

 TENSOR IN PRINCIPAL AXIS SYSTEM
 AA -4.511953E-09 BB -8.649065E-10 CC  5.376860E-09

 PRINCIPAL AXES
         X             Y             Z
 A  1.000000E+00  0.000000E+00  0.000000E+00
 B  0.000000E+00  1.000000E+00  0.000000E+00
 C  0.000000E+00  0.000000E+00  1.000000E+00

 ANGLES BETWEEN PRINCIPAL AXES AND ORIGINAL AXES (DEGREES)
         X             Y             Z
 A      0.000000     90.000000     90.000000
 B     90.000000      0.000000     90.000000
 C     90.000000     90.000000      0.000000


 POINT   ATOM  MASS NO  NUCLEAR G FACTOR
   29   29 O      17      -0.7575220

 TENSOR IN ORIGINAL CARTESIAN AXES
 XX  1.815191E-09 YY -3.225045E-09 ZZ  1.409854E-09 XY -4.545678E-09 XZ -7.701470E-10 YZ  6.974496E-10

 TENSOR IN PRINCIPAL AXIS SYSTEM
 AA  1.815191E-09 BB -3.225045E-09 CC  1.409854E-09

 PRINCIPAL AXES
         X             Y             Z
 A  1.000000E+00  0.000000E+00  0.000000E+00
 B  0.000000E+00  1.000000E+00  0.000000E+00
 C  0.000000E+00  0.000000E+00  1.000000E+00

 ANGLES BETWEEN PRINCIPAL AXES AND ORIGINAL AXES (DEGREES)
         X             Y             Z
 A      0.000000     90.000000     90.000000
 B     90.000000      0.000000     90.000000
 C     90.000000     90.000000      0.000000


 POINT   ATOM  MASS NO  NUCLEAR G FACTOR
   30   30 O      17      -0.7575220

 TENSOR IN ORIGINAL CARTESIAN AXES
 XX  1.289630E-10 YY  1.893289E-10 ZZ -3.182919E-10 XY -3.203642E-10 XZ -1.048535E-09 YZ -1.258199E-09

 TENSOR IN PRINCIPAL AXIS SYSTEM
 AA  1.289630E-10 BB  1.893289E-10 CC -3.182919E-10

 PRINCIPAL AXES
         X             Y             Z
 A  1.000000E+00  0.000000E+00  0.000000E+00
 B  0.000000E+00  1.000000E+00  0.000000E+00
 C  0.000000E+00  0.000000E+00  1.000000E+00

 ANGLES BETWEEN PRINCIPAL AXES AND ORIGINAL AXES (DEGREES)
         X             Y             Z
 A      0.000000     90.000000     90.000000
 B     90.000000      0.000000     90.000000
 C     90.000000     90.000000      0.000000


 POINT   ATOM  MASS NO  NUCLEAR G FACTOR
   31   31 O      17      -0.7575220

 TENSOR IN ORIGINAL CARTESIAN AXES
 XX  8.103470E-10 YY -7.718156E-10 ZZ -3.853147E-11 XY  1.915038E-09 XZ -1.360565E-09 YZ -2.045668E-09

 TENSOR IN PRINCIPAL AXIS SYSTEM
 AA  8.103470E-10 BB -7.718156E-10 CC -3.853147E-11

 PRINCIPAL AXES
         X             Y             Z
 A  1.000000E+00  0.000000E+00  0.000000E+00
 B  0.000000E+00  1.000000E+00  0.000000E+00
 C  0.000000E+00  0.000000E+00  1.000000E+00

 ANGLES BETWEEN PRINCIPAL AXES AND ORIGINAL AXES (DEGREES)
         X             Y             Z
 A      0.000000     90.000000     90.000000
 B     90.000000      0.000000     90.000000
 C     90.000000     90.000000      0.000000


 POINT   ATOM  MASS NO  NUCLEAR G FACTOR
   32   32 O      17      -0.7575220

 TENSOR IN ORIGINAL CARTESIAN AXES
 XX  4.418572E-09 YY  1.081647E-08 ZZ -1.523504E-08 XY  7.621644E-09 XZ  1.733821E-08 YZ -9.834601E-09

 TENSOR IN PRINCIPAL AXIS SYSTEM
 AA  1.323717E-08 BB  1.588328E-08 CC -2.912045E-08

 PRINCIPAL AXES
         X             Y             Z
 A  6.827630E-01 -4.538954E-01  5.725502E-01
 B  5.536189E-01  8.327701E-01  0.000000E+00
 C -4.768027E-01  3.169746E-01  8.198697E-01

 ANGLES BETWEEN PRINCIPAL AXES AND ORIGINAL AXES (DEGREES)
         X             Y             Z
 A     46.940069    116.993884     55.071751
 B     56.384357     33.615643     90.000000
 C    118.476787     71.519939     34.928249


 POINT   ATOM  MASS NO  NUCLEAR G FACTOR
   33   33 O      17      -0.7575220

 TENSOR IN ORIGINAL CARTESIAN AXES
 XX -1.180266E-09 YY  2.952524E-09 ZZ -1.772258E-09 XY  5.872653E-10 XZ -2.730972E-10 YZ -1.620161E-10

 TENSOR IN PRINCIPAL AXIS SYSTEM
 AA -1.180266E-09 BB  2.952524E-09 CC -1.772258E-09

 PRINCIPAL AXES
         X             Y             Z
 A  1.000000E+00  0.000000E+00  0.000000E+00
 B  0.000000E+00  1.000000E+00  0.000000E+00
 C  0.000000E+00  0.000000E+00  1.000000E+00

 ANGLES BETWEEN PRINCIPAL AXES AND ORIGINAL AXES (DEGREES)
         X             Y             Z
 A      0.000000     90.000000     90.000000
 B     90.000000      0.000000     90.000000
 C     90.000000     90.000000      0.000000


 POINT   ATOM  MASS NO  NUCLEAR G FACTOR
   34   34 O      17      -0.7575220

 TENSOR IN ORIGINAL CARTESIAN AXES
 XX  2.291222E-09 YY -3.889235E-11 ZZ -2.252330E-09 XY -3.412939E-09 XZ  1.705919E-09 YZ -1.452472E-09

 TENSOR IN PRINCIPAL AXIS SYSTEM
 AA  2.291222E-09 BB -3.889235E-11 CC -2.252330E-09

 PRINCIPAL AXES
         X             Y             Z
 A  1.000000E+00  0.000000E+00  0.000000E+00
 B  0.000000E+00  1.000000E+00  0.000000E+00
 C  0.000000E+00  0.000000E+00  1.000000E+00

 ANGLES BETWEEN PRINCIPAL AXES AND ORIGINAL AXES (DEGREES)
         X             Y             Z
 A      0.000000     90.000000     90.000000
 B     90.000000      0.000000     90.000000
 C     90.000000     90.000000      0.000000


 POINT   ATOM  MASS NO  NUCLEAR G FACTOR
   35   35 O      17      -0.7575220

 TENSOR IN ORIGINAL CARTESIAN AXES
 XX  1.066221E-09 YY  8.062177E-10 ZZ -1.872439E-09 XY -1.183141E-10 XZ -2.995962E-09 YZ -2.028589E-09

 TENSOR IN PRINCIPAL AXIS SYSTEM
 AA  1.066221E-09 BB  8.062177E-10 CC -1.872439E-09

 PRINCIPAL AXES
         X             Y             Z
 A  1.000000E+00  0.000000E+00  0.000000E+00
 B  0.000000E+00  1.000000E+00  0.000000E+00
 C  0.000000E+00  0.000000E+00  1.000000E+00

 ANGLES BETWEEN PRINCIPAL AXES AND ORIGINAL AXES (DEGREES)
         X             Y             Z
 A      0.000000     90.000000     90.000000
 B     90.000000      0.000000     90.000000
 C     90.000000     90.000000      0.000000


 POINT   ATOM  MASS NO  NUCLEAR G FACTOR
   36   36 O      17      -0.7575220

 TENSOR IN ORIGINAL CARTESIAN AXES
 XX  8.644287E-10 YY -1.228982E-09 ZZ  3.645528E-10 XY  1.131865E-09 XZ  2.394177E-10 YZ  4.307701E-09

 TENSOR IN PRINCIPAL AXIS SYSTEM
 AA  8.644287E-10 BB -1.228982E-09 CC  3.645528E-10

 PRINCIPAL AXES
         X             Y             Z
 A  1.000000E+00  0.000000E+00  0.000000E+00
 B  0.000000E+00  1.000000E+00  0.000000E+00
 C  0.000000E+00  0.000000E+00  1.000000E+00

 ANGLES BETWEEN PRINCIPAL AXES AND ORIGINAL AXES (DEGREES)
         X             Y             Z
 A      0.000000     90.000000     90.000000
 B     90.000000      0.000000     90.000000
 C     90.000000     90.000000      0.000000


 POINT   ATOM  MASS NO  NUCLEAR G FACTOR
   37   37 O      17      -0.7575220

 TENSOR IN ORIGINAL CARTESIAN AXES
 XX -2.003178E-08 YY  4.517134E-09 ZZ  1.551464E-08 XY -2.397153E-08 XZ  1.018851E-08 YZ  5.612191E-09

 TENSOR IN PRINCIPAL AXIS SYSTEM
 AA -3.724777E-08 BB  1.917401E-08 CC  1.807376E-08

 PRINCIPAL AXES
         X             Y             Z
 A  8.331946E-01  5.094388E-01 -2.150788E-01
 B -5.216471E-01  8.531614E-01  0.000000E+00
 C  1.834970E-01  1.121953E-01  9.765967E-01

 ANGLES BETWEEN PRINCIPAL AXES AND ORIGINAL AXES (DEGREES)
         X             Y             Z
 A     33.571692     59.373542    102.420153
 B    121.442801     31.442801     90.000000
 C     79.426486     83.558122     12.420153


 POINT   ATOM  MASS NO  NUCLEAR G FACTOR
   38   38 O      17      -0.7575220

 TENSOR IN ORIGINAL CARTESIAN AXES
 XX -2.591684E-09 YY -6.203581E-10 ZZ  3.212042E-09 XY  6.020036E-10 XZ  1.948953E-10 YZ -1.134499E-09

 TENSOR IN PRINCIPAL AXIS SYSTEM
 AA -2.591684E-09 BB -6.203581E-10 CC  3.212042E-09

 PRINCIPAL AXES
         X             Y             Z
 A  1.000000E+00  0.000000E+00  0.000000E+00
 B  0.000000E+00  1.000000E+00  0.000000E+00
 C  0.000000E+00  0.000000E+00  1.000000E+00

 ANGLES BETWEEN PRINCIPAL AXES AND ORIGINAL AXES (DEGREES)
         X             Y             Z
 A      0.000000     90.000000     90.000000
 B     90.000000      0.000000     90.000000
 C     90.000000     90.000000      0.000000


 POINT   ATOM  MASS NO  NUCLEAR G FACTOR
   39   39 O      17      -0.7575220

 TENSOR IN ORIGINAL CARTESIAN AXES
 XX  2.993535E-10 YY  5.848192E-10 ZZ -8.841727E-10 XY  3.335763E-09 XZ  3.610615E-10 YZ  1.886494E-09

 TENSOR IN PRINCIPAL AXIS SYSTEM
 AA  2.993535E-10 BB  5.848192E-10 CC -8.841727E-10

 PRINCIPAL AXES
         X             Y             Z
 A  1.000000E+00  0.000000E+00  0.000000E+00
 B  0.000000E+00  1.000000E+00  0.000000E+00
 C  0.000000E+00  0.000000E+00  1.000000E+00

 ANGLES BETWEEN PRINCIPAL AXES AND ORIGINAL AXES (DEGREES)
         X             Y             Z
 A      0.000000     90.000000     90.000000
 B     90.000000      0.000000     90.000000
 C     90.000000     90.000000      0.000000


 POINT   ATOM  MASS NO  NUCLEAR G FACTOR
   40   40 O      17      -0.7575220

 TENSOR IN ORIGINAL CARTESIAN AXES
 XX -1.220612E-09 YY  2.273649E-10 ZZ  9.932471E-10 XY -1.200463E-09 XZ  2.951669E-09 YZ  2.860964E-09

 TENSOR IN PRINCIPAL AXIS SYSTEM
 AA -1.220612E-09 BB  2.273649E-10 CC  9.932471E-10

 PRINCIPAL AXES
         X             Y             Z
 A  1.000000E+00  0.000000E+00  0.000000E+00
 B  0.000000E+00  1.000000E+00  0.000000E+00
 C  0.000000E+00  0.000000E+00  1.000000E+00

 ANGLES BETWEEN PRINCIPAL AXES AND ORIGINAL AXES (DEGREES)
         X             Y             Z
 A      0.000000     90.000000     90.000000
 B     90.000000      0.000000     90.000000
 C     90.000000     90.000000      0.000000


 POINT   ATOM  MASS NO  NUCLEAR G FACTOR
   41   41 O      17      -0.7575220

 TENSOR IN ORIGINAL CARTESIAN AXES
 XX  7.763331E-11 YY  5.156099E-10 ZZ -5.932433E-10 XY  2.099813E-09 XZ  4.770049E-10 YZ  1.457158E-09

 TENSOR IN PRINCIPAL AXIS SYSTEM
 AA  7.763331E-11 BB  5.156099E-10 CC -5.932433E-10

 PRINCIPAL AXES
         X             Y             Z
 A  1.000000E+00  0.000000E+00  0.000000E+00
 B  0.000000E+00  1.000000E+00  0.000000E+00
 C  0.000000E+00  0.000000E+00  1.000000E+00

 ANGLES BETWEEN PRINCIPAL AXES AND ORIGINAL AXES (DEGREES)
         X             Y             Z
 A      0.000000     90.000000     90.000000
 B     90.000000      0.000000     90.000000
 C     90.000000     90.000000      0.000000


 POINT   ATOM  MASS NO  NUCLEAR G FACTOR
   42   42 O      17      -0.7575220

 TENSOR IN ORIGINAL CARTESIAN AXES
 XX  1.686217E-09 YY -1.783595E-09 ZZ  9.737820E-11 XY -1.934373E-10 XZ -1.295966E-09 YZ -2.301240E-09

 TENSOR IN PRINCIPAL AXIS SYSTEM
 AA  1.686217E-09 BB -1.783595E-09 CC  9.737820E-11

 PRINCIPAL AXES
         X             Y             Z
 A  1.000000E+00  0.000000E+00  0.000000E+00
 B  0.000000E+00  1.000000E+00  0.000000E+00
 C  0.000000E+00  0.000000E+00  1.000000E+00

 ANGLES BETWEEN PRINCIPAL AXES AND ORIGINAL AXES (DEGREES)
         X             Y             Z
 A      0.000000     90.000000     90.000000
 B     90.000000      0.000000     90.000000
 C     90.000000     90.000000      0.000000


 POINT   ATOM  MASS NO  NUCLEAR G FACTOR
   43   43 O      17      -0.7575220

 TENSOR IN ORIGINAL CARTESIAN AXES
 XX  2.410659E-08 YY  5.354113E-09 ZZ -2.946070E-08 XY -1.992703E-08 XZ  2.731566E-08 YZ  4.722333E-08

 TENSOR IN PRINCIPAL AXIS SYSTEM
 AA  3.675308E-08 BB  3.724742E-08 CC -7.400050E-08

 PRINCIPAL AXES
         X             Y             Z
 A  8.443201E-01 -5.358391E-01  0.000000E+00
 B  4.149328E-01  6.538085E-01  6.327442E-01
 C -3.390491E-01 -5.342386E-01  7.743609E-01

 ANGLES BETWEEN PRINCIPAL AXES AND ORIGINAL AXES (DEGREES)
         X             Y             Z
 A     32.400834    122.400834     90.000000
 B     65.484913     49.170634     50.747126
 C    109.818948    122.292292     39.252874


 POINT   ATOM  MASS NO  NUCLEAR G FACTOR
   44   44 O      17      -0.7575220

 TENSOR IN ORIGINAL CARTESIAN AXES
 XX  8.673668E-10 YY -9.251964E-10 ZZ  5.782962E-11 XY  9.405300E-10 XZ  7.817636E-11 YZ  1.393221E-09

 TENSOR IN PRINCIPAL AXIS SYSTEM
 AA  8.673668E-10 BB -9.251964E-10 CC  5.782962E-11

 PRINCIPAL AXES
         X             Y             Z
 A  1.000000E+00  0.000000E+00  0.000000E+00
 B  0.000000E+00  1.000000E+00  0.000000E+00
 C  0.000000E+00  0.000000E+00  1.000000E+00

 ANGLES BETWEEN PRINCIPAL AXES AND ORIGINAL AXES (DEGREES)
         X             Y             Z
 A      0.000000     90.000000     90.000000
 B     90.000000      0.000000     90.000000
 C     90.000000     90.000000      0.000000


 POINT   ATOM  MASS NO  NUCLEAR G FACTOR
   45   45 O      17      -0.7575220

 TENSOR IN ORIGINAL CARTESIAN AXES
 XX -2.302214E-09 YY -5.390606E-10 ZZ  2.841275E-09 XY  6.539887E-10 XZ  6.632623E-11 YZ  9.042390E-10

 TENSOR IN PRINCIPAL AXIS SYSTEM
 AA -2.302214E-09 BB -5.390606E-10 CC  2.841275E-09

 PRINCIPAL AXES
         X             Y             Z
 A  1.000000E+00  0.000000E+00  0.000000E+00
 B  0.000000E+00  1.000000E+00  0.000000E+00
 C  0.000000E+00  0.000000E+00  1.000000E+00

 ANGLES BETWEEN PRINCIPAL AXES AND ORIGINAL AXES (DEGREES)
         X             Y             Z
 A      0.000000     90.000000     90.000000
 B     90.000000      0.000000     90.000000
 C     90.000000     90.000000      0.000000


 POINT   ATOM  MASS NO  NUCLEAR G FACTOR
   46   46 O      17      -0.7575220

 TENSOR IN ORIGINAL CARTESIAN AXES
 XX -2.597554E-10 YY  1.601084E-09 ZZ -1.341329E-09 XY -1.213377E-10 XZ -2.193321E-09 YZ  2.090273E-09

 TENSOR IN PRINCIPAL AXIS SYSTEM
 AA -2.597554E-10 BB  1.601084E-09 CC -1.341329E-09

 PRINCIPAL AXES
         X             Y             Z
 A  1.000000E+00  0.000000E+00  0.000000E+00
 B  0.000000E+00  1.000000E+00  0.000000E+00
 C  0.000000E+00  0.000000E+00  1.000000E+00

 ANGLES BETWEEN PRINCIPAL AXES AND ORIGINAL AXES (DEGREES)
         X             Y             Z
 A      0.000000     90.000000     90.000000
 B     90.000000      0.000000     90.000000
 C     90.000000     90.000000      0.000000


 POINT   ATOM  MASS NO  NUCLEAR G FACTOR
   47   47 O      17      -0.7575220

 TENSOR IN ORIGINAL CARTESIAN AXES
 XX  5.628648E-10 YY -4.697352E-10 ZZ -9.312959E-11 XY  2.564036E-10 XZ  6.221896E-10 YZ -7.114487E-10

 TENSOR IN PRINCIPAL AXIS SYSTEM
 AA  5.628648E-10 BB -4.697352E-10 CC -9.312959E-11

 PRINCIPAL AXES
         X             Y             Z
 A  1.000000E+00  0.000000E+00  0.000000E+00
 B  0.000000E+00  1.000000E+00  0.000000E+00
 C  0.000000E+00  0.000000E+00  1.000000E+00

 ANGLES BETWEEN PRINCIPAL AXES AND ORIGINAL AXES (DEGREES)
         X             Y             Z
 A      0.000000     90.000000     90.000000
 B     90.000000      0.000000     90.000000
 C     90.000000     90.000000      0.000000


 POINT   ATOM  MASS NO  NUCLEAR G FACTOR
   48   48 O      17      -0.7575220

 TENSOR IN ORIGINAL CARTESIAN AXES
 XX -3.687357E-10 YY  9.748065E-10 ZZ -6.060708E-10 XY  2.394239E-09 XZ -3.272142E-09 YZ  1.108223E-09

 TENSOR IN PRINCIPAL AXIS SYSTEM
 AA -3.687357E-10 BB  9.748065E-10 CC -6.060708E-10

 PRINCIPAL AXES
         X             Y             Z
 A  1.000000E+00  0.000000E+00  0.000000E+00
 B  0.000000E+00  1.000000E+00  0.000000E+00
 C  0.000000E+00  0.000000E+00  1.000000E+00

 ANGLES BETWEEN PRINCIPAL AXES AND ORIGINAL AXES (DEGREES)
         X             Y             Z
 A      0.000000     90.000000     90.000000
 B     90.000000      0.000000     90.000000
 C     90.000000     90.000000      0.000000


 POINT   ATOM  MASS NO  NUCLEAR G FACTOR
   49   49 O      17      -0.7575220

 TENSOR IN ORIGINAL CARTESIAN AXES
 XX -1.078367E-09 YY  6.740506E-10 ZZ  4.043167E-10 XY -3.523903E-11 XZ  1.326349E-10 YZ -2.945512E-09

 TENSOR IN PRINCIPAL AXIS SYSTEM
 AA -1.078367E-09 BB  6.740506E-10 CC  4.043167E-10

 PRINCIPAL AXES
         X             Y             Z
 A  1.000000E+00  0.000000E+00  0.000000E+00
 B  0.000000E+00  1.000000E+00  0.000000E+00
 C  0.000000E+00  0.000000E+00  1.000000E+00

 ANGLES BETWEEN PRINCIPAL AXES AND ORIGINAL AXES (DEGREES)
         X             Y             Z
 A      0.000000     90.000000     90.000000
 B     90.000000      0.000000     90.000000
 C     90.000000     90.000000      0.000000


 POINT   ATOM  MASS NO  NUCLEAR G FACTOR
   50   50 O      17      -0.7575220

 TENSOR IN ORIGINAL CARTESIAN AXES
 XX  2.894615E-09 YY -2.638771E-09 ZZ -2.558432E-10 XY -4.250876E-10 XZ  2.408178E-10 YZ  1.263618E-10

 TENSOR IN PRINCIPAL AXIS SYSTEM
 AA  2.894615E-09 BB -2.638771E-09 CC -2.558432E-10

 PRINCIPAL AXES
         X             Y             Z
 A  1.000000E+00  0.000000E+00  0.000000E+00
 B  0.000000E+00  1.000000E+00  0.000000E+00
 C  0.000000E+00  0.000000E+00  1.000000E+00

 ANGLES BETWEEN PRINCIPAL AXES AND ORIGINAL AXES (DEGREES)
         X             Y             Z
 A      0.000000     90.000000     90.000000
 B     90.000000      0.000000     90.000000
 C     90.000000     90.000000      0.000000


 POINT   ATOM  MASS NO  NUCLEAR G FACTOR
   51   51 O      17      -0.7575220

 TENSOR IN ORIGINAL CARTESIAN AXES
 XX -1.693618E-10 YY -4.666792E-10 ZZ  6.360410E-10 XY  5.318146E-10 XZ -5.356160E-10 YZ  8.768184E-10

 TENSOR IN PRINCIPAL AXIS SYSTEM
 AA -1.693618E-10 BB -4.666792E-10 CC  6.360410E-10

 PRINCIPAL AXES
         X             Y             Z
 A  1.000000E+00  0.000000E+00  0.000000E+00
 B  0.000000E+00  1.000000E+00  0.000000E+00
 C  0.000000E+00  0.000000E+00  1.000000E+00

 ANGLES BETWEEN PRINCIPAL AXES AND ORIGINAL AXES (DEGREES)
         X             Y             Z
 A      0.000000     90.000000     90.000000
 B     90.000000      0.000000     90.000000
 C     90.000000     90.000000      0.000000


 POINT   ATOM  MASS NO  NUCLEAR G FACTOR
   52   52 O      17      -0.7575220

 TENSOR IN ORIGINAL CARTESIAN AXES
 XX -6.605640E-10 YY  1.554731E-09 ZZ -8.941666E-10 XY  1.171621E-09 XZ  2.005473E-09 YZ -2.192911E-09

 TENSOR IN PRINCIPAL AXIS SYSTEM
 AA -6.605640E-10 BB  1.554731E-09 CC -8.941666E-10

 PRINCIPAL AXES
         X             Y             Z
 A  1.000000E+00  0.000000E+00  0.000000E+00
 B  0.000000E+00  1.000000E+00  0.000000E+00
 C  0.000000E+00  0.000000E+00  1.000000E+00

 ANGLES BETWEEN PRINCIPAL AXES AND ORIGINAL AXES (DEGREES)
         X             Y             Z
 A      0.000000     90.000000     90.000000
 B     90.000000      0.000000     90.000000
 C     90.000000     90.000000      0.000000


 POINT   ATOM  MASS NO  NUCLEAR G FACTOR
   53   53 O      17      -0.7575220

 TENSOR IN ORIGINAL CARTESIAN AXES
 XX  2.674863E-09 YY -3.743353E-09 ZZ  1.068490E-09 XY  6.817090E-10 XZ  9.473690E-10 YZ  1.610424E-09

 TENSOR IN PRINCIPAL AXIS SYSTEM
 AA  2.674863E-09 BB -3.743353E-09 CC  1.068490E-09

 PRINCIPAL AXES
         X             Y             Z
 A  1.000000E+00  0.000000E+00  0.000000E+00
 B  0.000000E+00  1.000000E+00  0.000000E+00
 C  0.000000E+00  0.000000E+00  1.000000E+00

 ANGLES BETWEEN PRINCIPAL AXES AND ORIGINAL AXES (DEGREES)
         X             Y             Z
 A      0.000000     90.000000     90.000000
 B     90.000000      0.000000     90.000000
 C     90.000000     90.000000      0.000000


 POINT   ATOM  MASS NO  NUCLEAR G FACTOR
   54   54 O      17      -0.7575220

 TENSOR IN ORIGINAL CARTESIAN AXES
 XX -2.177849E-10 YY  1.120001E-09 ZZ -9.022158E-10 XY  2.191354E-09 XZ -1.463784E-09 YZ  1.900452E-09

 TENSOR IN PRINCIPAL AXIS SYSTEM
 AA -2.177849E-10 BB  1.120001E-09 CC -9.022158E-10

 PRINCIPAL AXES
         X             Y             Z
 A  1.000000E+00  0.000000E+00  0.000000E+00
 B  0.000000E+00  1.000000E+00  0.000000E+00
 C  0.000000E+00  0.000000E+00  1.000000E+00

 ANGLES BETWEEN PRINCIPAL AXES AND ORIGINAL AXES (DEGREES)
         X             Y             Z
 A      0.000000     90.000000     90.000000
 B     90.000000      0.000000     90.000000
 C     90.000000     90.000000      0.000000


 POINT   ATOM  MASS NO  NUCLEAR G FACTOR
   55   55 O      17      -0.7575220

 TENSOR IN ORIGINAL CARTESIAN AXES
 XX  1.404578E-08 YY  9.486354E-10 ZZ -1.499441E-08 XY  7.509302E-09 XZ  1.270111E-08 YZ -2.746479E-08

 TENSOR IN PRINCIPAL AXIS SYSTEM
 AA  1.881690E-08 BB  2.077540E-08 CC -3.959230E-08

 PRINCIPAL AXES
         X             Y             Z
 A  9.361300E-01  0.000000E+00  3.516541E-01
 B  2.015298E-01  8.194917E-01 -5.364877E-01
 C -2.881776E-01  5.730910E-01  7.671508E-01

 ANGLES BETWEEN PRINCIPAL AXES AND ORIGINAL AXES (DEGREES)
         X             Y             Z
 A     20.588518     90.000000     69.411482
 B     78.373569     34.966054    122.444860
 C    106.748882     55.033946     39.901281


 POINT   ATOM  MASS NO  NUCLEAR G FACTOR
   56   56 O      17      -0.7575220

 TENSOR IN ORIGINAL CARTESIAN AXES
 XX  2.923775E-10 YY  3.777931E-10 ZZ -6.701707E-10 XY  1.571729E-09 XZ  5.790980E-10 YZ -4.397142E-09

 TENSOR IN PRINCIPAL AXIS SYSTEM
 AA  2.923775E-10 BB  3.777931E-10 CC -6.701707E-10

 PRINCIPAL AXES
         X             Y             Z
 A  1.000000E+00  0.000000E+00  0.000000E+00
 B  0.000000E+00  1.000000E+00  0.000000E+00
 C  0.000000E+00  0.000000E+00  1.000000E+00

 ANGLES BETWEEN PRINCIPAL AXES AND ORIGINAL AXES (DEGREES)
         X             Y             Z
 A      0.000000     90.000000     90.000000
 B     90.000000      0.000000     90.000000
 C     90.000000     90.000000      0.000000


 POINT   ATOM  MASS NO  NUCLEAR G FACTOR
   57   57 SI     29      -1.1106000

 TENSOR IN ORIGINAL CARTESIAN AXES
 XX  7.385901E-09 YY  2.325573E-09 ZZ -9.711473E-09 XY  1.379127E-08 XZ  6.538809E-09 YZ  6.392538E-09

 TENSOR IN PRINCIPAL AXIS SYSTEM
 AA  2.153638E-08 BB -9.165704E-09 CC -1.237068E-08

 PRINCIPAL AXES
         X             Y             Z
 A  7.375200E-01  6.145226E-01  2.800468E-01
 B -6.401368E-01  7.682609E-01  0.000000E+00
 C -2.151490E-01 -1.792683E-01  9.599863E-01

 ANGLES BETWEEN PRINCIPAL AXES AND ORIGINAL AXES (DEGREES)
         X             Y             Z
 A     42.479418     52.082758     73.737001
 B    129.802024     39.802024     90.000000
 C    102.424270    100.327142     16.262999


 POINT   ATOM  MASS NO  NUCLEAR G FACTOR
   58   58 SI     29      -1.1106000

 TENSOR IN ORIGINAL CARTESIAN AXES
 XX  2.780918E-10 YY  5.522904E-09 ZZ -5.800996E-09 XY  3.340194E-10 XZ -4.996077E-10 YZ  4.000299E-09

 TENSOR IN PRINCIPAL AXIS SYSTEM
 AA  2.780918E-10 BB  5.522904E-09 CC -5.800996E-09

 PRINCIPAL AXES
         X             Y             Z
 A  1.000000E+00  0.000000E+00  0.000000E+00
 B  0.000000E+00  1.000000E+00  0.000000E+00
 C  0.000000E+00  0.000000E+00  1.000000E+00

 ANGLES BETWEEN PRINCIPAL AXES AND ORIGINAL AXES (DEGREES)
         X             Y             Z
 A      0.000000     90.000000     90.000000
 B     90.000000      0.000000     90.000000
 C     90.000000     90.000000      0.000000


 POINT   ATOM  MASS NO  NUCLEAR G FACTOR
   59   59 SI     29      -1.1106000

 TENSOR IN ORIGINAL CARTESIAN AXES
 XX -2.955227E-09 YY -3.645610E-10 ZZ  3.319788E-09 XY  3.298795E-09 XZ -3.640014E-10 YZ -7.235111E-10

 TENSOR IN PRINCIPAL AXIS SYSTEM
 AA -2.955227E-09 BB -3.645610E-10 CC  3.319788E-09

 PRINCIPAL AXES
         X             Y             Z
 A  1.000000E+00  0.000000E+00  0.000000E+00
 B  0.000000E+00  1.000000E+00  0.000000E+00
 C  0.000000E+00  0.000000E+00  1.000000E+00

 ANGLES BETWEEN PRINCIPAL AXES AND ORIGINAL AXES (DEGREES)
         X             Y             Z
 A      0.000000     90.000000     90.000000
 B     90.000000      0.000000     90.000000
 C     90.000000     90.000000      0.000000


 POINT   ATOM  MASS NO  NUCLEAR G FACTOR
   60   60 SI     29      -1.1106000

 TENSOR IN ORIGINAL CARTESIAN AXES
 XX -2.538694E-09 YY -4.438952E-09 ZZ  6.977646E-09 XY  4.215885E-09 XZ -6.401219E-09 YZ -9.478182E-09

 TENSOR IN PRINCIPAL AXIS SYSTEM
 AA -2.538694E-09 BB -4.438952E-09 CC  6.977646E-09

 PRINCIPAL AXES
         X             Y             Z
 A  1.000000E+00  0.000000E+00  0.000000E+00
 B  0.000000E+00  1.000000E+00  0.000000E+00
 C  0.000000E+00  0.000000E+00  1.000000E+00

 ANGLES BETWEEN PRINCIPAL AXES AND ORIGINAL AXES (DEGREES)
         X             Y             Z
 A      0.000000     90.000000     90.000000
 B     90.000000      0.000000     90.000000
 C     90.000000     90.000000      0.000000


 POINT   ATOM  MASS NO  NUCLEAR G FACTOR
   61   61 SI     29      -1.1106000

 TENSOR IN ORIGINAL CARTESIAN AXES
 XX  7.234107E-09 YY -2.177951E-09 ZZ -5.056156E-09 XY  2.098689E-09 XZ  7.035937E-09 YZ  4.117337E-09

 TENSOR IN PRINCIPAL AXIS SYSTEM
 AA  7.234107E-09 BB -2.177951E-09 CC -5.056156E-09

 PRINCIPAL AXES
         X             Y             Z
 A  1.000000E+00  0.000000E+00  0.000000E+00
 B  0.000000E+00  1.000000E+00  0.000000E+00
 C  0.000000E+00  0.000000E+00  1.000000E+00

 ANGLES BETWEEN PRINCIPAL AXES AND ORIGINAL AXES (DEGREES)
         X             Y             Z
 A      0.000000     90.000000     90.000000
 B     90.000000      0.000000     90.000000
 C     90.000000     90.000000      0.000000


 POINT   ATOM  MASS NO  NUCLEAR G FACTOR
   62   62 SI     29      -1.1106000

 TENSOR IN ORIGINAL CARTESIAN AXES
 XX -5.813521E-09 YY  4.182605E-09 ZZ  1.630916E-09 XY -5.902100E-09 XZ  6.179235E-10 YZ -4.195448E-10

 TENSOR IN PRINCIPAL AXIS SYSTEM
 AA -5.813521E-09 BB  4.182605E-09 CC  1.630916E-09

 PRINCIPAL AXES
         X             Y             Z
 A  1.000000E+00  0.000000E+00  0.000000E+00
 B  0.000000E+00  1.000000E+00  0.000000E+00
 C  0.000000E+00  0.000000E+00  1.000000E+00

 ANGLES BETWEEN PRINCIPAL AXES AND ORIGINAL AXES (DEGREES)
         X             Y             Z
 A      0.000000     90.000000     90.000000
 B     90.000000      0.000000     90.000000
 C     90.000000     90.000000      0.000000


 POINT   ATOM  MASS NO  NUCLEAR G FACTOR
   63   63 SI     29      -1.1106000

 TENSOR IN ORIGINAL CARTESIAN AXES
 XX  4.059771E-09 YY -7.555038E-11 ZZ -3.984220E-09 XY -1.043969E-09 XZ  2.244889E-10 YZ  1.920620E-10

 TENSOR IN PRINCIPAL AXIS SYSTEM
 AA  4.059771E-09 BB -7.555038E-11 CC -3.984220E-09

 PRINCIPAL AXES
         X             Y             Z
 A  1.000000E+00  0.000000E+00  0.000000E+00
 B  0.000000E+00  1.000000E+00  0.000000E+00
 C  0.000000E+00  0.000000E+00  1.000000E+00

 ANGLES BETWEEN PRINCIPAL AXES AND ORIGINAL AXES (DEGREES)
         X             Y             Z
 A      0.000000     90.000000     90.000000
 B     90.000000      0.000000     90.000000
 C     90.000000     90.000000      0.000000


 POINT   ATOM  MASS NO  NUCLEAR G FACTOR
   64   64 SI     29      -1.1106000

 TENSOR IN ORIGINAL CARTESIAN AXES
 XX  5.241529E-09 YY -5.581890E-09 ZZ  3.403612E-10 XY -3.757670E-10 XZ -4.195302E-10 YZ  3.411014E-09

 TENSOR IN PRINCIPAL AXIS SYSTEM
 AA  5.241529E-09 BB -5.581890E-09 CC  3.403612E-10

 PRINCIPAL AXES
         X             Y             Z
 A  1.000000E+00  0.000000E+00  0.000000E+00
 B  0.000000E+00  1.000000E+00  0.000000E+00
 C  0.000000E+00  0.000000E+00  1.000000E+00

 ANGLES BETWEEN PRINCIPAL AXES AND ORIGINAL AXES (DEGREES)
         X             Y             Z
 A      0.000000     90.000000     90.000000
 B     90.000000      0.000000     90.000000
 C     90.000000     90.000000      0.000000


 POINT   ATOM  MASS NO  NUCLEAR G FACTOR
   65   65 SI     29      -1.1106000

 TENSOR IN ORIGINAL CARTESIAN AXES
 XX  1.946483E-09 YY -6.339687E-09 ZZ  4.393204E-09 XY  7.072429E-09 XZ -2.097435E-09 YZ  2.125363E-09

 TENSOR IN PRINCIPAL AXIS SYSTEM
 AA  1.946483E-09 BB -6.339687E-09 CC  4.393204E-09

 PRINCIPAL AXES
         X             Y             Z
 A  1.000000E+00  0.000000E+00  0.000000E+00
 B  0.000000E+00  1.000000E+00  0.000000E+00
 C  0.000000E+00  0.000000E+00  1.000000E+00

 ANGLES BETWEEN PRINCIPAL AXES AND ORIGINAL AXES (DEGREES)
         X             Y             Z
 A      0.000000     90.000000     90.000000
 B     90.000000      0.000000     90.000000
 C     90.000000     90.000000      0.000000


 POINT   ATOM  MASS NO  NUCLEAR G FACTOR
   66   66 SI     29      -1.1106000

 TENSOR IN ORIGINAL CARTESIAN AXES
 XX -1.500078E-10 YY  4.661241E-09 ZZ -4.511233E-09 XY -4.589158E-09 XZ -1.022840E-08 YZ -1.971063E-08

 TENSOR IN PRINCIPAL AXIS SYSTEM
 AA  8.127639E-09 BB  1.612742E-08 CC -2.425505E-08

 PRINCIPAL AXES
         X             Y             Z
 A  7.773372E-01  0.000000E+00 -6.290841E-01
 B -3.352136E-01  8.462036E-01 -4.142116E-01
 C  5.323333E-01  5.328597E-01  6.577856E-01

 ANGLES BETWEEN PRINCIPAL AXES AND ORIGINAL AXES (DEGREES)
         X             Y             Z
 A     38.982585     90.000000    128.982585
 B    109.585525     32.198874    114.469679
 C     57.836758     57.801126     48.868794


 POINT   ATOM  MASS NO  NUCLEAR G FACTOR
   67   67 SI     29      -1.1106000

 TENSOR IN ORIGINAL CARTESIAN AXES
 XX -4.999872E-09 YY -6.777855E-10 ZZ  5.677658E-09 XY  3.627433E-10 XZ  6.193456E-09 YZ -4.093128E-09

 TENSOR IN PRINCIPAL AXIS SYSTEM
 AA -4.999872E-09 BB -6.777855E-10 CC  5.677658E-09

 PRINCIPAL AXES
         X             Y             Z
 A  1.000000E+00  0.000000E+00  0.000000E+00
 B  0.000000E+00  1.000000E+00  0.000000E+00
 C  0.000000E+00  0.000000E+00  1.000000E+00

 ANGLES BETWEEN PRINCIPAL AXES AND ORIGINAL AXES (DEGREES)
         X             Y             Z
 A      0.000000     90.000000     90.000000
 B     90.000000      0.000000     90.000000
 C     90.000000     90.000000      0.000000


 POINT   ATOM  MASS NO  NUCLEAR G FACTOR
   68   68 SI     29      -1.1106000

 TENSOR IN ORIGINAL CARTESIAN AXES
 XX  3.530362E-09 YY -9.464692E-09 ZZ  5.934330E-09 XY -6.566541E-09 XZ -1.713106E-09 YZ -3.519705E-09

 TENSOR IN PRINCIPAL AXIS SYSTEM
 AA  3.530362E-09 BB -9.464692E-09 CC  5.934330E-09

 PRINCIPAL AXES
         X             Y             Z
 A  1.000000E+00  0.000000E+00  0.000000E+00
 B  0.000000E+00  1.000000E+00  0.000000E+00
 C  0.000000E+00  0.000000E+00  1.000000E+00

 ANGLES BETWEEN PRINCIPAL AXES AND ORIGINAL AXES (DEGREES)
         X             Y             Z
 A      0.000000     90.000000     90.000000
 B     90.000000      0.000000     90.000000
 C     90.000000     90.000000      0.000000


 POINT   ATOM  MASS NO  NUCLEAR G FACTOR
   69   69 SI     29      -1.1106000

 TENSOR IN ORIGINAL CARTESIAN AXES
 XX  2.024860E-09 YY  4.419164E-09 ZZ -6.444024E-09 XY  2.598495E-09 XZ  3.912979E-09 YZ -3.458173E-10

 TENSOR IN PRINCIPAL AXIS SYSTEM
 AA  2.024860E-09 BB  4.419164E-09 CC -6.444024E-09

 PRINCIPAL AXES
         X             Y             Z
 A  1.000000E+00  0.000000E+00  0.000000E+00
 B  0.000000E+00  1.000000E+00  0.000000E+00
 C  0.000000E+00  0.000000E+00  1.000000E+00

 ANGLES BETWEEN PRINCIPAL AXES AND ORIGINAL AXES (DEGREES)
         X             Y             Z
 A      0.000000     90.000000     90.000000
 B     90.000000      0.000000     90.000000
 C     90.000000     90.000000      0.000000


 POINT   ATOM  MASS NO  NUCLEAR G FACTOR
   70   70 SI     29      -1.1106000

 TENSOR IN ORIGINAL CARTESIAN AXES
 XX  7.760864E-10 YY -6.768166E-09 ZZ  5.992080E-09 XY  2.171057E-09 XZ -4.238026E-09 YZ -2.815024E-09

 TENSOR IN PRINCIPAL AXIS SYSTEM
 AA  7.760864E-10 BB -6.768166E-09 CC  5.992080E-09

 PRINCIPAL AXES
         X             Y             Z
 A  1.000000E+00  0.000000E+00  0.000000E+00
 B  0.000000E+00  1.000000E+00  0.000000E+00
 C  0.000000E+00  0.000000E+00  1.000000E+00

 ANGLES BETWEEN PRINCIPAL AXES AND ORIGINAL AXES (DEGREES)
         X             Y             Z
 A      0.000000     90.000000     90.000000
 B     90.000000      0.000000     90.000000
 C     90.000000     90.000000      0.000000


 POINT   ATOM  MASS NO  NUCLEAR G FACTOR
   71   71 SI     29      -1.1106000

 TENSOR IN ORIGINAL CARTESIAN AXES
 XX -1.200189E-08 YY  7.721656E-09 ZZ  4.280239E-09 XY -2.735840E-09 XZ  7.044027E-10 YZ  1.764162E-09

 TENSOR IN PRINCIPAL AXIS SYSTEM
 AA -1.200189E-08 BB  7.721656E-09 CC  4.280239E-09

 PRINCIPAL AXES
         X             Y             Z
 A  1.000000E+00  0.000000E+00  0.000000E+00
 B  0.000000E+00  1.000000E+00  0.000000E+00
 C  0.000000E+00  0.000000E+00  1.000000E+00

 ANGLES BETWEEN PRINCIPAL AXES AND ORIGINAL AXES (DEGREES)
         X             Y             Z
 A      0.000000     90.000000     90.000000
 B     90.000000      0.000000     90.000000
 C     90.000000     90.000000      0.000000


 POINT   ATOM  MASS NO  NUCLEAR G FACTOR
   72   72 SI     29      -1.1106000

 TENSOR IN ORIGINAL CARTESIAN AXES
 XX  2.103314E-09 YY -6.498547E-09 ZZ  4.395233E-09 XY  5.764857E-09 XZ -4.732769E-09 YZ -4.169280E-09

 TENSOR IN PRINCIPAL AXIS SYSTEM
 AA  2.103314E-09 BB -6.498547E-09 CC  4.395233E-09

 PRINCIPAL AXES
         X             Y             Z
 A  1.000000E+00  0.000000E+00  0.000000E+00
 B  0.000000E+00  1.000000E+00  0.000000E+00
 C  0.000000E+00  0.000000E+00  1.000000E+00

 ANGLES BETWEEN PRINCIPAL AXES AND ORIGINAL AXES (DEGREES)
         X             Y             Z
 A      0.000000     90.000000     90.000000
 B     90.000000      0.000000     90.000000
 C     90.000000     90.000000      0.000000


 POINT   ATOM  MASS NO  NUCLEAR G FACTOR
   73   73 SI     29      -1.1106000

 TENSOR IN ORIGINAL CARTESIAN AXES
 XX  3.051653E-09 YY  3.422568E-10 ZZ -3.393909E-09 XY -3.739904E-09 XZ -1.737273E-09 YZ -2.307693E-09

 TENSOR IN PRINCIPAL AXIS SYSTEM
 AA  3.051653E-09 BB  3.422568E-10 CC -3.393909E-09

 PRINCIPAL AXES
         X             Y             Z
 A  1.000000E+00  0.000000E+00  0.000000E+00
 B  0.000000E+00  1.000000E+00  0.000000E+00
 C  0.000000E+00  0.000000E+00  1.000000E+00

 ANGLES BETWEEN PRINCIPAL AXES AND ORIGINAL AXES (DEGREES)
         X             Y             Z
 A      0.000000     90.000000     90.000000
 B     90.000000      0.000000     90.000000
 C     90.000000     90.000000      0.000000


 POINT   ATOM  MASS NO  NUCLEAR G FACTOR
   74   74 SI     29      -1.1106000

 TENSOR IN ORIGINAL CARTESIAN AXES
 XX -4.127003E-10 YY -1.884493E-09 ZZ  2.297193E-09 XY  1.165478E-09 XZ  3.915136E-09 YZ -5.898957E-09

 TENSOR IN PRINCIPAL AXIS SYSTEM
 AA -4.127003E-10 BB -1.884493E-09 CC  2.297193E-09

 PRINCIPAL AXES
         X             Y             Z
 A  1.000000E+00  0.000000E+00  0.000000E+00
 B  0.000000E+00  1.000000E+00  0.000000E+00
 C  0.000000E+00  0.000000E+00  1.000000E+00

 ANGLES BETWEEN PRINCIPAL AXES AND ORIGINAL AXES (DEGREES)
         X             Y             Z
 A      0.000000     90.000000     90.000000
 B     90.000000      0.000000     90.000000
 C     90.000000     90.000000      0.000000


 POINT   ATOM  MASS NO  NUCLEAR G FACTOR
   75   75 SI     29      -1.1106000

 TENSOR IN ORIGINAL CARTESIAN AXES
 XX  3.110344E-09 YY -1.070480E-10 ZZ -3.003296E-09 XY  4.757748E-09 XZ -4.912093E-09 YZ  2.057995E-09

 TENSOR IN PRINCIPAL AXIS SYSTEM
 AA  3.110344E-09 BB -1.070480E-10 CC -3.003296E-09

 PRINCIPAL AXES
         X             Y             Z
 A  1.000000E+00  0.000000E+00  0.000000E+00
 B  0.000000E+00  1.000000E+00  0.000000E+00
 C  0.000000E+00  0.000000E+00  1.000000E+00

 ANGLES BETWEEN PRINCIPAL AXES AND ORIGINAL AXES (DEGREES)
         X             Y             Z
 A      0.000000     90.000000     90.000000
 B     90.000000      0.000000     90.000000
 C     90.000000     90.000000      0.000000


 POINT   ATOM  MASS NO  NUCLEAR G FACTOR
   76   76 SI     29      -1.1106000

 TENSOR IN ORIGINAL CARTESIAN AXES
 XX  1.913551E-11 YY  4.046485E-09 ZZ -4.065621E-09 XY  1.873614E-09 XZ  1.326245E-09 YZ  6.426249E-09

 TENSOR IN PRINCIPAL AXIS SYSTEM
 AA  1.913551E-11 BB  4.046485E-09 CC -4.065621E-09

 PRINCIPAL AXES
         X             Y             Z
 A  1.000000E+00  0.000000E+00  0.000000E+00
 B  0.000000E+00  1.000000E+00  0.000000E+00
 C  0.000000E+00  0.000000E+00  1.000000E+00

 ANGLES BETWEEN PRINCIPAL AXES AND ORIGINAL AXES (DEGREES)
         X             Y             Z
 A      0.000000     90.000000     90.000000
 B     90.000000      0.000000     90.000000
 C     90.000000     90.000000      0.000000


 POINT   ATOM  MASS NO  NUCLEAR G FACTOR
   77   77 SI     29      -1.1106000

 TENSOR IN ORIGINAL CARTESIAN AXES
 XX -6.308398E-09 YY  1.086312E-09 ZZ  5.222085E-09 XY -1.479316E-09 XZ  7.146349E-09 YZ  6.356709E-09

 TENSOR IN PRINCIPAL AXIS SYSTEM
 AA -6.308398E-09 BB  1.086312E-09 CC  5.222085E-09

 PRINCIPAL AXES
         X             Y             Z
 A  1.000000E+00  0.000000E+00  0.000000E+00
 B  0.000000E+00  1.000000E+00  0.000000E+00
 C  0.000000E+00  0.000000E+00  1.000000E+00

 ANGLES BETWEEN PRINCIPAL AXES AND ORIGINAL AXES (DEGREES)
         X             Y             Z
 A      0.000000     90.000000     90.000000
 B     90.000000      0.000000     90.000000
 C     90.000000     90.000000      0.000000


 POINT   ATOM  MASS NO  NUCLEAR G FACTOR
   78   78 SI     29      -1.1106000

 TENSOR IN ORIGINAL CARTESIAN AXES
 XX -4.636788E-09 YY  8.536335E-10 ZZ  3.783155E-09 XY  9.796431E-09 XZ -1.411040E-09 YZ  1.117704E-09

 TENSOR IN PRINCIPAL AXIS SYSTEM
 AA -4.636788E-09 BB  8.536335E-10 CC  3.783155E-09

 PRINCIPAL AXES
         X             Y             Z
 A  1.000000E+00  0.000000E+00  0.000000E+00
 B  0.000000E+00  1.000000E+00  0.000000E+00
 C  0.000000E+00  0.000000E+00  1.000000E+00

 ANGLES BETWEEN PRINCIPAL AXES AND ORIGINAL AXES (DEGREES)
         X             Y             Z
 A      0.000000     90.000000     90.000000
 B     90.000000      0.000000     90.000000
 C     90.000000     90.000000      0.000000


 POINT   ATOM  MASS NO  NUCLEAR G FACTOR
   79   79 SI     29      -1.1106000

 TENSOR IN ORIGINAL CARTESIAN AXES
 XX -2.533128E-10 YY -3.620024E-09 ZZ  3.873337E-09 XY  1.132594E-09 XZ -7.939216E-10 YZ  8.379310E-10

 TENSOR IN PRINCIPAL AXIS SYSTEM
 AA -2.533128E-10 BB -3.620024E-09 CC  3.873337E-09

 PRINCIPAL AXES
         X             Y             Z
 A  1.000000E+00  0.000000E+00  0.000000E+00
 B  0.000000E+00  1.000000E+00  0.000000E+00
 C  0.000000E+00  0.000000E+00  1.000000E+00

 ANGLES BETWEEN PRINCIPAL AXES AND ORIGINAL AXES (DEGREES)
         X             Y             Z
 A      0.000000     90.000000     90.000000
 B     90.000000      0.000000     90.000000
 C     90.000000     90.000000      0.000000


 POINT   ATOM  MASS NO  NUCLEAR G FACTOR
   80   80 SI     29      -1.1106000

 TENSOR IN ORIGINAL CARTESIAN AXES
 XX -4.263395E-09 YY -3.778897E-09 ZZ  8.042292E-09 XY  9.827444E-09 XZ -1.364320E-09 YZ -1.722872E-09

 TENSOR IN PRINCIPAL AXIS SYSTEM
 AA -4.263395E-09 BB -3.778897E-09 CC  8.042292E-09

 PRINCIPAL AXES
         X             Y             Z
 A  1.000000E+00  0.000000E+00  0.000000E+00
 B  0.000000E+00  1.000000E+00  0.000000E+00
 C  0.000000E+00  0.000000E+00  1.000000E+00

 ANGLES BETWEEN PRINCIPAL AXES AND ORIGINAL AXES (DEGREES)
         X             Y             Z
 A      0.000000     90.000000     90.000000
 B     90.000000      0.000000     90.000000
 C     90.000000     90.000000      0.000000


 POINT   ATOM  MASS NO  NUCLEAR G FACTOR
   81   81 SI     29      -1.1106000

 TENSOR IN ORIGINAL CARTESIAN AXES
 XX -2.096638E-09 YY -1.515387E-09 ZZ  3.612024E-09 XY  1.117999E-08 XZ  1.253389E-09 YZ  7.824366E-10

 TENSOR IN PRINCIPAL AXIS SYSTEM
 AA -1.298977E-08 BB  9.377751E-09 CC  3.612024E-09

 PRINCIPAL AXES
         X             Y             Z
 A  7.162354E-01 -6.978587E-01  0.000000E+00
 B  6.978587E-01  7.162354E-01  0.000000E+00
 C  0.000000E+00  0.000000E+00  1.000000E+00

 ANGLES BETWEEN PRINCIPAL AXES AND ORIGINAL AXES (DEGREES)
         X             Y             Z
 A     44.255461    134.255461     90.000000
 B     45.744539     44.255461     90.000000
 C     90.000000     90.000000      0.000000


 POINT   ATOM  MASS NO  NUCLEAR G FACTOR
   82   82 SI     29      -1.1106000

 TENSOR IN ORIGINAL CARTESIAN AXES
 XX  6.695344E-10 YY  5.326388E-10 ZZ -1.202173E-09 XY  3.991696E-09 XZ  3.942013E-09 YZ  3.524056E-09

 TENSOR IN PRINCIPAL AXIS SYSTEM
 AA  6.695344E-10 BB  5.326388E-10 CC -1.202173E-09

 PRINCIPAL AXES
         X             Y             Z
 A  1.000000E+00  0.000000E+00  0.000000E+00
 B  0.000000E+00  1.000000E+00  0.000000E+00
 C  0.000000E+00  0.000000E+00  1.000000E+00

 ANGLES BETWEEN PRINCIPAL AXES AND ORIGINAL AXES (DEGREES)
         X             Y             Z
 A      0.000000     90.000000     90.000000
 B     90.000000      0.000000     90.000000
 C     90.000000     90.000000      0.000000


 POINT   ATOM  MASS NO  NUCLEAR G FACTOR
   83   83 SI     29      -1.1106000

 TENSOR IN ORIGINAL CARTESIAN AXES
 XX  7.768831E-10 YY -7.483558E-10 ZZ -2.852732E-11 XY  8.555495E-10 XZ -5.996619E-09 YZ  5.825746E-09

 TENSOR IN PRINCIPAL AXIS SYSTEM
 AA  7.768831E-10 BB -7.483558E-10 CC -2.852732E-11

 PRINCIPAL AXES
         X             Y             Z
 A  1.000000E+00  0.000000E+00  0.000000E+00
 B  0.000000E+00  1.000000E+00  0.000000E+00
 C  0.000000E+00  0.000000E+00  1.000000E+00

 ANGLES BETWEEN PRINCIPAL AXES AND ORIGINAL AXES (DEGREES)
         X             Y             Z
 A      0.000000     90.000000     90.000000
 B     90.000000      0.000000     90.000000
 C     90.000000     90.000000      0.000000


 POINT   ATOM  MASS NO  NUCLEAR G FACTOR
   84   84 SI     29      -1.1106000

 TENSOR IN ORIGINAL CARTESIAN AXES
 XX  1.307338E-09 YY  7.321692E-09 ZZ -8.629031E-09 XY -1.332009E-09 XZ -2.983194E-09 YZ -4.734205E-09

 TENSOR IN PRINCIPAL AXIS SYSTEM
 AA  1.307338E-09 BB  7.321692E-09 CC -8.629031E-09

 PRINCIPAL AXES
         X             Y             Z
 A  1.000000E+00  0.000000E+00  0.000000E+00
 B  0.000000E+00  1.000000E+00  0.000000E+00
 C  0.000000E+00  0.000000E+00  1.000000E+00

 ANGLES BETWEEN PRINCIPAL AXES AND ORIGINAL AXES (DEGREES)
         X             Y             Z
 A      0.000000     90.000000     90.000000
 B     90.000000      0.000000     90.000000
 C     90.000000     90.000000      0.000000


[...]
   9    9 O    -6.3763    2.1308   19.3955  -0.16315E-07
  10   10 O    -2.0275    1.3787  -13.6426  -0.10919E-07
  11   11 O     0.0628    0.9026  -18.0917   0.55362E-08
  12   12 O    -9.1700   -5.8373  -13.7586  -0.10909E-08
  13   13 O    -0.1519    8.2802  -14.2615  -0.63926E-08
  14   14 O     5.3558   -3.2272  -15.1044   0.53857E-08
  15   15 O     3.4864   -6.8225  -18.2198   0.21031E-09
  16   16 O     0.5308   -3.5973  -16.0924   0.12777E-08
  17   17 O    -6.6558   -4.8410  -18.1563   0.48520E-08
  18   18 O     9.4018   -2.5382  -17.6447  -0.34133E-08
  19   19 O     7.4357    2.3692  -16.2163  -0.53337E-08
  20   20 O     5.3761   -3.0861   -9.2798  -0.50576E-08
  21   21 O     3.5558    4.6026   -6.1425   0.29238E-08
  22   22 O    -0.8262    6.3450   -2.0818   0.46655E-08
  23   23 O     7.2927    1.0565   -7.3762  -0.24899E-08
  24   24 O    -6.6889    3.2325  -11.8629   0.11580E-08
  25   25 O     4.4553   -6.7189   -4.9234  -0.10495E-07
  26   26 O    -3.6072    1.3548   -8.5274  -0.15276E-07
  27   27 O     7.9225    7.9652   -5.7942   0.35163E-08
  28   28 O     5.4468   -9.4388   -9.3506   0.92263E-09
  29   29 O     1.0023   -2.0101  -11.9992   0.18711E-08
  30   30 O     0.3011   -3.2098   -2.9677   0.16877E-07
  31   31 O    -2.7700    9.7317  -10.4069   0.94001E-08
  32   32 O     9.4934   -7.6186   -8.1695   0.22034E-08
  33   33 O    -5.0404   -2.0109  -12.0682  -0.15189E-07
  34   34 O    -9.4438   -0.6032   -1.8018   0.19112E-08
  35   35 O    -8.2249   -5.5343   -0.3091   0.70272E-09
  36   36 O   -10.0379   -2.8356   -9.1535   0.41620E-08
  37   37 O    -8.5017   -4.2971   -4.9924   0.19092E-08
  38   38 O    -1.0164    1.6933   -4.0553   0.15240E-07
  39   39 O    -9.1819    6.8940   -2.1203  -0.11239E-07
  40   40 O    -5.5770    3.7232   -4.3140  -0.68417E-08
  41   41 O     1.2742   -1.0018   -7.3378   0.31881E-08
  42   42 O     3.9478    0.4965   -3.4876   0.27048E-08
  43   43 O     8.0635   -9.1554   -1.7373  -0.58713E-08
  44   44 O     1.5505    9.3106   -6.4261   0.60526E-08
  45   45 O     2.3335    6.6887  -10.5379   0.12154E-07
  46   46 O    -1.3549    5.4597   -7.1379  -0.13726E-07
  47   47 O     7.8391    0.0192  -12.2154   0.15183E-07
  48   48 O     9.8503    7.3142  -10.4562  -0.27236E-08
  49   49 O    -6.3607    7.1236   -8.6477   0.41161E-08
  50   50 O    -6.3192   -7.1183   -8.3730   0.22658E-08
  51   51 O    -4.0487    9.5517   -4.9918   0.10115E-07
  52   52 O     1.6073   -5.9345   -8.8351  -0.27205E-07
  53   53 O    -6.1649    8.0028  -13.5778  -0.47534E-09
  54   54 O    -0.8487   -8.2320   -1.7779  -0.57469E-08
  55   55 O     7.5893   -4.0717   -1.7880  -0.43757E-08
  56   56 O     7.7446    3.9112   -3.3949  -0.78226E-08
  57   57 SI   -0.3742    0.3770    1.6555   0.23257E-07
  58   58 SI    5.2311    6.0172    0.6817  -0.36147E-07
  59   59 SI    2.8364    8.6355    3.4444   0.35102E-07
  60   60 SI    8.1382    3.7697    3.5004  -0.60917E-08
  61   61 SI    0.6310    6.2036    6.4203   0.26959E-07
  62   62 SI    5.7742    1.4076    6.4299  -0.25922E-07
  63   63 SI    3.1385    3.7592    9.1416   0.25591E-07
  64   64 SI    8.1001    8.5418    8.9749   0.30169E-08
  65   65 SI    1.4642   -7.4988    0.8809  -0.12408E-07
  66   66 SI    6.9523   -2.6194    1.7714  -0.71877E-08
  67   67 SI    3.2809   -1.0861    3.7574  -0.22667E-07
  68   68 SI    8.1739   -6.1637    4.0634   0.16641E-07
  69   69 SI    0.6428   -3.5928    6.3395  -0.58553E-07
  70   70 SI    5.4476   -8.7576    6.2936  -0.33388E-07
  71   71 SI    3.1790   -6.0815    8.9780  -0.73644E-08
  72   72 SI    8.2997   -1.1219    9.0236  -0.66923E-07
  73   73 SI   -9.9204    0.6278    1.1793  -0.37635E-07
  74   74 SI   -4.7159    6.3375    1.2844   0.19643E-07
  75   75 SI   -6.9932    8.8817    3.9135  -0.38128E-07
  76   76 SI   -2.0895    3.7588    3.9744   0.39321E-08
  77   77 SI   -9.7744    6.2758    6.2098  -0.24975E-07
  78   78 SI   -4.6809    1.2325    6.5696   0.51448E-08
  79   79 SI   -7.1775    3.9363    8.9950  -0.27875E-08
  80   80 SI   -1.8297    8.7964    8.9669  -0.69745E-08
  81   81 SI   -9.3153   -7.8624    1.4779  -0.12498E-07
  82   82 SI   -2.2599   -4.9627   -2.2474   0.24853E-08
  83   83 SI   -6.8878   -1.4242    3.8579   0.18113E-07
  84   84 SI   -1.9922   -5.4816    3.3197  -0.14827E-07
  85   85 SI   -9.5396   -3.6723    6.5150   0.76358E-08
  86   86 SI   -4.1795   -8.1867    6.1824   0.46240E-07
  87   87 SI   -6.8630   -6.0655    8.9592   0.36292E-07
  88   88 SI   -1.8564   -1.1043    9.1118   0.16184E-07
  89   89 SI    0.5476    1.4276   11.8765   0.18395E-08
  90   90 SI    5.6816    6.1258   11.8802   0.32969E-07
  91   91 SI    0.7816   -8.5420   11.7226  -0.13560E-07
  92   92 SI    5.6614   -3.5360   11.6301  -0.30897E-07
  93   93 SI   -9.6937    1.4463   11.6057   0.36458E-07
  94   94 SI   -4.4547    6.3382   11.5523  -0.87408E-09
  95   95 SI   -9.6152   -8.5382   11.2446   0.36454E-08
  96   96 SI   -4.3993   -3.6576   11.7108  -0.32059E-07
  97   97 SI    3.1848    8.6193   14.6175  -0.12333E-07
  98   98 SI    8.2582    3.6449   14.5438  -0.30556E-07
  99   99 SI    0.5072    6.1941   17.4071  -0.25309E-07
 100  100 SI    5.6986    1.3285   17.4705  -0.13448E-07
 101  101 SI    2.9564    3.7579  -19.5818   0.25353E-07
 102  102 SI    8.9887    8.8670   19.5635  -0.16390E-07
 103  103 SI    3.2930   -0.9698   14.4381   0.74170E-08
 104  104 SI    8.4067   -6.1355   13.9060  -0.17124E-07
 105  105 SI    0.7018   -3.5246   16.9778  -0.19877E-08
 106  106 SI    6.1553   -8.5007   16.8308   0.14570E-07
 107  107 SI    4.2293   -5.3086   18.9999   0.47885E-07
 108  108 SI    7.7296   -2.2993   19.4136  -0.88129E-08
 109  109 SI   -7.0380    8.9238   13.9671  -0.15305E-07
 110  110 SI   -2.0953    3.9564   14.5129  -0.13105E-08
 111  111 SI   -9.4788    6.4583   16.5450  -0.22846E-07
 112  112 SI   -4.5216    1.0684   17.0061   0.19784E-07
 113  113 SI   -6.5680    5.2566   19.5894   0.90010E-08
 114  114 SI   -3.0397    8.0164   19.7132  -0.16078E-07
 115  115 SI   -7.0602   -1.0258   14.0853  -0.74765E-08
 116  116 SI   -1.7573   -6.1067   14.3357   0.23173E-08
 117  117 SI   -9.6941   -3.5592   16.5046  -0.32524E-07
 118  118 SI   -4.4430   -8.5630   16.8287   0.82658E-08
 119  119 SI   -6.0501   -4.8685   18.6046  -0.75829E-08
 120  120 SI   -1.7173   -0.8306   19.7537   0.12058E-07
 121  121 SI    7.4911    5.4960  -15.9075  -0.10534E-07
 122  122 SI    0.4331   -0.2846  -14.7953   0.51330E-08
 123  123 SI    3.2016   -5.4838  -15.4685   0.27945E-07
 124  124 SI   -7.5398    7.6221  -16.6667   0.29114E-08
 125  125 SI   -2.9404    9.6718  -13.7143   0.20489E-07
 126  126 SI    6.0521   -0.0781  -14.7022   0.11903E-07
 127  127 SI   -9.0730   -4.5311  -16.3425   0.11378E-07
 128  128 SI   -1.7477   -4.8832  -18.6399  -0.60899E-08
 129  129 SI    5.6878    2.5459   -5.1713   0.16898E-07
 130  130 SI   -2.8386    8.8248   -2.1542  -0.95793E-08
 131  131 SI    7.8149   -1.2208   -9.4227  -0.93795E-08
 132  132 SI   -4.3662    1.0109  -11.5441   0.54540E-07
 133  133 SI    3.3236   -8.0794   -7.4860  -0.29296E-07
 134  134 SI   -3.2926   -4.7340  -11.3843  -0.15479E-07
 135  135 SI   -8.9073   -5.4283   -7.8459  -0.29594E-07
 136  136 SI    7.1313   -6.7801   -3.4843  -0.15519E-06
 137  137 SI   -3.0714    3.1205   -6.0473  -0.10503E-08
 138  138 SI    0.7899    4.0124   -0.7036  -0.34026E-07
 139  139 SI    8.2079    7.1146   -2.7483   0.38120E-07
 140  140 SI    1.5288    6.4431   -7.5938  -0.83351E-08
 141  141 SI    2.2884   -2.9686   -9.4348   0.14555E-07
 142  142 SI   -7.4102    4.2747   -1.6433   0.12542E-07
 143  143 SI   -7.7450    6.1910  -11.3070  -0.41508E-08
 144  144 SI    1.1411   -0.5662   -4.3320  -0.11223E-07
 145  145 SI    2.7697    8.4571  -13.1033   0.93549E-08
 146  146 SI   -9.6592   -3.5802   -2.2880   0.92332E-09
 147  147 SI    8.3217    9.2186   -8.5435   0.87402E-09
 148  148 SI   -4.7942    9.7405   -8.0508   0.92876E-08
 *******************************************************************************
 HYPERFINE COUPLING CONSTANTS (AN)
 *******************************************************************************
 POINT  ATOM  MASS N0    NUCLEAR      AN (MT)       AN (MHZ)    AN (CM**(-1))
                        G FACTOR
   1    1 O      17   -0.7575220    0.41410E-06   0.11605E-04   0.38711E-09
   2    2 O      17   -0.7575220    0.29467E-06   0.82581E-05   0.27546E-09
   3    3 O      17   -0.7575220   -0.86193E-07  -0.24156E-05  -0.80574E-10
   4    4 O      17   -0.7575220    0.61261E-07   0.17168E-05   0.57268E-10
   5    5 O      17   -0.7575220   -0.71699E-07  -0.20094E-05  -0.67025E-10
   6    6 O      17   -0.7575220   -0.41606E-07  -0.11660E-05  -0.38894E-10
   7    7 O      17   -0.7575220   -0.11653E-06  -0.32658E-05  -0.10894E-09
   8    8 O      17   -0.7575220    0.82974E-07   0.23253E-05   0.77565E-10
   9    9 O      17   -0.7575220    0.35291E-06   0.98901E-05   0.32990E-09
  10   10 O      17   -0.7575220    0.23618E-06   0.66190E-05   0.22079E-09
  11   11 O      17   -0.7575220   -0.11975E-06  -0.33560E-05  -0.11194E-09
  12   12 O      17   -0.7575220    0.23597E-07   0.66130E-06   0.22059E-10
  13   13 O      17   -0.7575220    0.13828E-06   0.38752E-05   0.12926E-09
  14   14 O      17   -0.7575220   -0.11650E-06  -0.32648E-05  -0.10890E-09
  15   15 O      17   -0.7575220   -0.45491E-08  -0.12749E-06  -0.42526E-11
  16   16 O      17   -0.7575220   -0.27637E-07  -0.77453E-06  -0.25836E-10
  17   17 O      17   -0.7575220   -0.10495E-06  -0.29413E-05  -0.98110E-10
  18   18 O      17   -0.7575220    0.73832E-07   0.20691E-05   0.69019E-10
  19   19 O      17   -0.7575220    0.11537E-06   0.32333E-05   0.10785E-09
  20   20 O      17   -0.7575220    0.10940E-06   0.30659E-05   0.10227E-09
  21   21 O      17   -0.7575220   -0.63243E-07  -0.17724E-05  -0.59121E-10
  22   22 O      17   -0.7575220   -0.10092E-06  -0.28282E-05  -0.94338E-10
  23   23 O      17   -0.7575220    0.53857E-07   0.15093E-05   0.50346E-10
  24   24 O      17   -0.7575220   -0.25048E-07  -0.70197E-06  -0.23415E-10
  25   25 O      17   -0.7575220    0.22700E-06   0.63618E-05   0.21221E-09
  26   26 O      17   -0.7575220    0.33044E-06   0.92605E-05   0.30890E-09
  27   27 O      17   -0.7575220   -0.76059E-07  -0.21316E-05  -0.71101E-10
  28   28 O      17   -0.7575220   -0.19957E-07  -0.55930E-06  -0.18656E-10
  29   29 O      17   -0.7575220   -0.40474E-07  -0.11343E-05  -0.37835E-10
  30   30 O      17   -0.7575220   -0.36507E-06  -0.10231E-04  -0.34127E-09
  31   31 O      17   -0.7575220   -0.20333E-06  -0.56983E-05  -0.19008E-09
  32   32 O      17   -0.7575220   -0.47661E-07  -0.13357E-05  -0.44554E-10
  33   33 O      17   -0.7575220    0.32854E-06   0.92074E-05   0.30712E-09
  34   34 O      17   -0.7575220   -0.41341E-07  -0.11586E-05  -0.38646E-10
  35   35 O      17   -0.7575220   -0.15200E-07  -0.42599E-06  -0.14209E-10
  36   36 O      17   -0.7575220   -0.90028E-07  -0.25230E-05  -0.84159E-10
  37   37 O      17   -0.7575220   -0.41297E-07  -0.11573E-05  -0.38605E-10
  38   38 O      17   -0.7575220   -0.32965E-06  -0.92384E-05  -0.30816E-09
  39   39 O      17   -0.7575220    0.24311E-06   0.68133E-05   0.22727E-09
  40   40 O      17   -0.7575220    0.14799E-06   0.41474E-05   0.13834E-09
  41   41 O      17   -0.7575220   -0.68960E-07  -0.19326E-05  -0.64464E-10
  42   42 O      17   -0.7575220   -0.58508E-07  -0.16397E-05  -0.54694E-10
  43   43 O      17   -0.7575220    0.12700E-06   0.35592E-05   0.11872E-09
  44   44 O      17   -0.7575220   -0.13092E-06  -0.36691E-05  -0.12239E-09
  45   45 O      17   -0.7575220   -0.26291E-06  -0.73680E-05  -0.24577E-09
  46   46 O      17   -0.7575220    0.29689E-06   0.83204E-05   0.27754E-09
  47   47 O      17   -0.7575220   -0.32842E-06  -0.92038E-05  -0.30701E-09
  48   48 O      17   -0.7575220    0.58914E-07   0.16511E-05   0.55074E-10
  49   49 O      17   -0.7575220   -0.89034E-07  -0.24952E-05  -0.83230E-10
  50   50 O      17   -0.7575220   -0.49011E-07  -0.13735E-05  -0.45816E-10
  51   51 O      17   -0.7575220   -0.21880E-06  -0.61317E-05  -0.20453E-09
  52   52 O      17   -0.7575220    0.58847E-06   0.16492E-04   0.55011E-09
  53   53 O      17   -0.7575220    0.10282E-07   0.28815E-06   0.96116E-11
  54   54 O      17   -0.7575220    0.12431E-06   0.34837E-05   0.11621E-09
  55   55 O      17   -0.7575220    0.94649E-07   0.26525E-05   0.88479E-10
  56   56 O      17   -0.7575220    0.16921E-06   0.47421E-05   0.15818E-09
  57   57 SI     29   -1.1106000   -0.73755E-06  -0.20670E-04  -0.68947E-09
  58   58 SI     29   -1.1106000    0.11463E-05   0.32126E-04   0.10716E-08
  59   59 SI     29   -1.1106000   -0.11132E-05  -0.31197E-04  -0.10406E-08
  60   60 SI     29   -1.1106000    0.19318E-06   0.54140E-05   0.18059E-09
  61   61 SI     29   -1.1106000   -0.85494E-06  -0.23960E-04  -0.79921E-09
  62   62 SI     29   -1.1106000    0.82207E-06   0.23038E-04   0.76848E-09
  63   63 SI     29   -1.1106000   -0.81157E-06  -0.22744E-04  -0.75867E-09
  64   64 SI     29   -1.1106000   -0.95672E-07  -0.26812E-05  -0.89435E-10
  65   65 SI     29   -1.1106000    0.39350E-06   0.11028E-04   0.36785E-09
  66   66 SI     29   -1.1106000    0.22794E-06   0.63880E-05   0.21308E-09
  67   67 SI     29   -1.1106000    0.71881E-06   0.20145E-04   0.67196E-09
  68   68 SI     29   -1.1106000   -0.52773E-06  -0.14790E-04  -0.49333E-09
  69   69 SI     29   -1.1106000    0.18569E-05   0.52038E-04   0.17358E-08
  70   70 SI     29   -1.1106000    0.10588E-05   0.29674E-04   0.98981E-09
  71   71 SI     29   -1.1106000    0.23354E-06   0.65450E-05   0.21832E-09
  72   72 SI     29   -1.1106000    0.21223E-05   0.59477E-04   0.19840E-08
  73   73 SI     29   -1.1106000    0.11935E-05   0.33448E-04   0.11157E-08
  74   74 SI     29   -1.1106000   -0.62292E-06  -0.17457E-04  -0.58231E-09
  75   75 SI     29   -1.1106000    0.12092E-05   0.33886E-04   0.11303E-08
  76   76 SI     29   -1.1106000   -0.12470E-06  -0.34946E-05  -0.11657E-09
  77   77 SI     29   -1.1106000    0.79201E-06   0.22196E-04   0.74038E-09
  78   78 SI     29   -1.1106000   -0.16315E-06  -0.45724E-05  -0.15252E-09
  79   79 SI     29   -1.1106000    0.88398E-07   0.24773E-05   0.82636E-10
  80   80 SI     29   -1.1106000    0.22118E-06   0.61986E-05   0.20676E-09
  81   81 SI     29   -1.1106000    0.39634E-06   0.11107E-04   0.37051E-09
  82   82 SI     29   -1.1106000   -0.78815E-07  -0.22088E-05  -0.73677E-10
  83   83 SI     29   -1.1106000   -0.57441E-06  -0.16098E-04  -0.53696E-09
  84   84 SI     29   -1.1106000    0.47021E-06   0.13178E-04   0.43956E-09
  85   85 SI     29   -1.1106000   -0.24215E-06  -0.67863E-05  -0.22637E-09
  86   86 SI     29   -1.1106000   -0.14664E-05  -0.41095E-04  -0.13708E-08
  87   87 SI     29   -1.1106000   -0.11509E-05  -0.32255E-04  -0.10759E-08
  88   88 SI     29   -1.1106000   -0.51324E-06  -0.14384E-04  -0.47979E-09
  89   89 SI     29   -1.1106000   -0.58335E-07  -0.16348E-05  -0.54532E-10
  90   90 SI     29   -1.1106000   -0.10455E-05  -0.29301E-04  -0.97738E-09
  91   91 SI     29   -1.1106000    0.43001E-06   0.12051E-04   0.40198E-09
  92   92 SI     29   -1.1106000    0.97982E-06   0.27459E-04   0.91595E-09
  93   93 SI     29   -1.1106000   -0.11562E-05  -0.32402E-04  -0.10808E-08
  94   94 SI     29   -1.1106000    0.27719E-07   0.77683E-06   0.25912E-10
  95   95 SI     29   -1.1106000   -0.11560E-06  -0.32398E-05  -0.10807E-09
  96   96 SI     29   -1.1106000    0.10167E-05   0.28492E-04   0.95039E-09
  97   97 SI     29   -1.1106000    0.39112E-06   0.10961E-04   0.36563E-09
  98   98 SI     29   -1.1106000    0.96900E-06   0.27156E-04   0.90583E-09
  99   99 SI     29   -1.1106000    0.80262E-06   0.22493E-04   0.75030E-09
 100  100 SI     29   -1.1106000    0.42647E-06   0.11952E-04   0.39867E-09
 101  101 SI     29   -1.1106000   -0.80400E-06  -0.22532E-04  -0.75159E-09
 102  102 SI     29   -1.1106000    0.51978E-06   0.14567E-04   0.48589E-09
 103  103 SI     29   -1.1106000   -0.23521E-06  -0.65918E-05  -0.21988E-09
 104  104 SI     29   -1.1106000    0.54304E-06   0.15219E-04   0.50764E-09
 105  105 SI     29   -1.1106000    0.63035E-07   0.17666E-05   0.58926E-10
 106  106 SI     29   -1.1106000   -0.46206E-06  -0.12949E-04  -0.43194E-09
 107  107 SI     29   -1.1106000   -0.15186E-05  -0.42557E-04  -0.14196E-08
 108  108 SI     29   -1.1106000    0.27948E-06   0.78324E-05   0.26126E-09
 109  109 SI     29   -1.1106000    0.48536E-06   0.13602E-04   0.45372E-09
 110  110 SI     29   -1.1106000    0.41559E-07   0.11647E-05   0.38849E-10
 111  111 SI     29   -1.1106000    0.72452E-06   0.20305E-04   0.67729E-09
 112  112 SI     29   -1.1106000   -0.62740E-06  -0.17583E-04  -0.58650E-09
 113  113 SI     29   -1.1106000   -0.28545E-06  -0.79996E-05  -0.26684E-09
 114  114 SI     29   -1.1106000    0.50986E-06   0.14289E-04   0.47662E-09
 115  115 SI     29   -1.1106000    0.23710E-06   0.66447E-05   0.22164E-09
 116  116 SI     29   -1.1106000   -0.73486E-07  -0.20594E-05  -0.68696E-10
 117  117 SI     29   -1.1106000    0.10314E-05   0.28905E-04   0.96418E-09
 118  118 SI     29   -1.1106000   -0.26213E-06  -0.73461E-05  -0.24504E-09
 119  119 SI     29   -1.1106000    0.24047E-06   0.67393E-05   0.22480E-09
 120  120 SI     29   -1.1106000   -0.38240E-06  -0.10717E-04  -0.35747E-09
 121  121 SI     29   -1.1106000    0.33407E-06   0.93622E-05   0.31229E-09
 122  122 SI     29   -1.1106000   -0.16278E-06  -0.45619E-05  -0.15217E-09
 123  123 SI     29   -1.1106000   -0.88620E-06  -0.24836E-04  -0.82843E-09
 124  124 SI     29   -1.1106000   -0.92328E-07  -0.25875E-05  -0.86309E-10
 125  125 SI     29   -1.1106000   -0.64977E-06  -0.18210E-04  -0.60741E-09
 126  126 SI     29   -1.1106000   -0.37746E-06  -0.10578E-04  -0.35286E-09
 127  127 SI     29   -1.1106000   -0.36081E-06  -0.10112E-04  -0.33729E-09
 128  128 SI     29   -1.1106000    0.19313E-06   0.54124E-05   0.18054E-09
 129  129 SI     29   -1.1106000   -0.53587E-06  -0.15018E-04  -0.50094E-09
 130  130 SI     29   -1.1106000    0.30379E-06   0.85136E-05   0.28398E-09
 131  131 SI     29   -1.1106000    0.29745E-06   0.83360E-05   0.27806E-09
 132  132 SI     29   -1.1106000   -0.17296E-05  -0.48472E-04  -0.16168E-08
 133  133 SI     29   -1.1106000    0.92904E-06   0.26036E-04   0.86848E-09
 134  134 SI     29   -1.1106000    0.49088E-06   0.13757E-04   0.45888E-09
 135  135 SI     29   -1.1106000    0.93850E-06   0.26301E-04   0.87732E-09
 136  136 SI     29   -1.1106000    0.49214E-05   0.13792E-03   0.46006E-08
 137  137 SI     29   -1.1106000    0.33309E-07   0.93348E-06   0.31138E-10
 138  138 SI     29   -1.1106000    0.10790E-05   0.30240E-04   0.10087E-08
 139  139 SI     29   -1.1106000   -0.12089E-05  -0.33879E-04  -0.11301E-08
 140  140 SI     29   -1.1106000    0.26433E-06   0.74078E-05   0.24710E-09
 141  141 SI     29   -1.1106000   -0.46158E-06  -0.12936E-04  -0.43149E-09
 142  142 SI     29   -1.1106000   -0.39774E-06  -0.11147E-04  -0.37181E-09
 143  143 SI     29   -1.1106000    0.13163E-06   0.36890E-05   0.12305E-09
 144  144 SI     29   -1.1106000    0.35590E-06   0.99741E-05   0.33270E-09
 145  145 SI     29   -1.1106000   -0.29667E-06  -0.83141E-05  -0.27733E-09
 146  146 SI     29   -1.1106000   -0.29281E-07  -0.82060E-06  -0.27372E-10
 147  147 SI     29   -1.1106000   -0.27717E-07  -0.77678E-06  -0.25911E-10
 148  148 SI     29   -1.1106000   -0.29453E-06  -0.82543E-05  -0.27533E-09

  CONVERSION FACTORS 
     AN (MILLI T)        28.554470 * GN * P(SPIN) (BOHR**(-3))
     AN (MHZ)            28.024940 * AN (MILLI T) 
     AN (CM**(-1))   0.3335641E-04 * AN (MHZ) 
 TTTTTTTTTTTTTTTTTTTTTTTTTTTTTT ISOTROPIC   TELAPSE   100771.86 TCPU   100611.63
 ENDPROP   
 TTTTTTTTTTTTTTTTTTTTTTTTTTTTTT END         TELAPSE   100771.86 TCPU   100611.63
 EEEEEEEEEE TERMINATION  DATE 12 05 2015 TIME 14:58:07.0
