
         
 *******************************************************************************
 *                                                                             *
 *                                CRYSTAL09                                    *
 *                              public : 2.0                                   *
 *                      December 10th, 2012 - sequential executable            *
 *                                                                             *
 *                                                                             *
 *                                                                             *
 *                              MAIN AUTHORS                                   *
 *                                                                             *
 *    R. DOVESI(1,10), V.R. SAUNDERS(2), C. ROETTI(1,10), R. ORLANDO (1,3),    *
 *  C.M. ZICOVICH-WILSON(1,4), F. PASCALE(5), B. CIVALLERI(1,10), K. DOLL(6),  *
 *       N.M. HARRISON(2,7), I. J. BUSH(2), Ph. D'ARCO(8), M. LLUNELL(9)       *
 *                                                                             *
 * (1) THEORETICAL CHEMISTRY GROUP - UNIVERSITA' DI TORINO - TORINO (ITALY)    *
 *      http://www.crystal.unito.it                                            *
 * (2) COMPUTATIONAL SCIENCE & ENGINEERING DEPARTMENT - CCLRC DARESBURY (UK)   *
 *     http://www.cse.clrc.ac.uk/cmg/CRYSTAL/                                  *
 * (3) UNIVERSITA' DEL PIEMONTE ORIENTALE - ALESSANDRIA (ITALY)                *
 * (4) UNIVERSIDAD AUTONOMA DEL ESTADO DE MORELOS - CUERNAVACA (MEXICO)        *
 * (5) UNIVERSITE' HENRI POINCARE' - NANCY (FRANCE)                            *
 * (6) MPI FUER FESTKOERPERFORSCHUNG - STUTTGART (GERMANY)                     *
 * (7) IMPERIAL COLLEGE - LONDON (UK)                                          *
 * (8) UNIVERSITE' PIERRE ET MARIE CURIE - PARIS (FRANCE)                      *
 * (9) UNIVERSIDAD DE BARCELONA - BARCELONA (SPAIN)                            *
 *(10) NIS - NANOSTRUCTURED INTERFACES AND SURFACES - TORINO (ITALY)           *
 *     http://www.crystal.unito.it                                             *
 *******************************************************************************
 EEEEEEEEEE STARTING  DATE 11 05 2015 TIME 10:57:30.3

 *******************************************************************************
 Created with astools                                                            
 CRYSTAL - PROPERTIES - TYPE OF CALCULATION :  UNRESTRICTED OPEN SHELL
 *******************************************************************************
 SPIN POLARIZED SYSTEM: SUMMED SPIN DENSITY    0.00000000

 KOHN-SHAM HAMILTONIAN

 (EXCHANGE)[CORRELATION] FUNCTIONAL:(BECKE)[LEE-YANG-PARR]

 NON-LOCAL WEIGHTING FACTOR (EXCHANGE) =           0.9000
 NON-LOCAL WEIGHTING FACTOR [CORRELATION] =        0.8100

 HYBRID EXCHANGE - PERCENTAGE OF FOCK EXCHANGE     5.0000

 SPIN POLARIZED DFT SELECTED

 DIRECT LATTICE VECTOR COMPONENTS (ANGSTROM)
        10.87570    0.00000    0.00000
         0.00000   10.77870    0.00000
         0.00000    0.00000   21.18660

 LATTICE PARAMETERS  (ANGSTROM AND DEGREES) - PRIMITIVE CELL
       A          B          C         ALPHA      BETA     GAMMA        VOLUME
   10.87570   10.77870   21.18660     47.6259   47.6259   47.6259    2483.61841
 *******************************************************************************
 N. OF ATOMS PER CELL      148  COULOMB OVERLAP TOL         (T1) 10** -8
 NUMBER OF SHELLS          776  COULOMB PENETRATION TOL     (T2) 10** -8
 NUMBER OF AO             2752  EXCHANGE OVERLAP TOL        (T3) 10** -8
 N. OF ELECTRONS PER CELL 1736  EXCHANGE PSEUDO OVP (F(G))  (T4) 10** -8
 CORE ELECTRONS PER CELL  1032  EXCHANGE PSEUDO OVP (P(G))  (T5) 10**-16
 N. OF SYMMETRY OPERATORS    1  POLE ORDER IN MONO ZONE                4
 *******************************************************************************
   ATOM N.AT.  SHELL    X(A)      Y(A)      Z(A)      EXAD       N.ELECT.
 *******************************************************************************
    1    8 O     4    -4.916    -1.220    -7.783   1.900E-01       8.681
    2    8 O     4     3.865     3.559    -8.048   1.900E-01       8.620
    3    8 O     4    -2.184     2.713    -9.327   1.900E-01       8.709
    4    8 O     4     3.759    -4.643    -8.818   1.900E-01       8.642
    5    8 O     4    -3.527     2.014    -6.835   1.900E-01       8.519
    6    8 O     4    -1.623    -3.488    -9.008   1.900E-01       8.608
    7    8 O     4    -3.909    -4.645    -7.594   1.900E-01       8.656
    8    8 O     4     2.600    -0.081    -8.489   1.900E-01       8.640
    9    8 O     4     1.168     3.886    -7.585   1.900E-01       8.666
   10    8 O     4    -3.816     0.722    -9.530   1.900E-01       8.790
   11    8 O     4    -0.921    -0.126    -9.897   1.900E-01       8.619
   12    8 O     4    -4.307     3.642    -9.442   1.900E-01       8.711
   13    8 O     4     3.339    -2.456    -7.426   1.900E-01       8.752
   14    8 O     4     1.208    -3.977    -8.547   1.900E-01       8.633
   15    8 O     4    -0.139    -2.026    -7.493   1.900E-01       8.619
   16    8 O     4     2.411    -2.556   -10.080   1.900E-01       8.807
   17    8 O     4     0.543     3.462    -1.741   1.900E-01       8.593
   18    8 O     4     2.938     4.047    -5.559   1.900E-01       8.551
   19    8 O     4     1.757     5.239    -3.281   1.900E-01       8.652
   20    8 O     4    -5.437     2.256    -4.165   1.900E-01       8.555
   21    8 O     4    -3.735     1.041    -2.594   1.900E-01       8.505
   22    8 O     4    -2.221     4.701    -5.857   1.900E-01       8.613
   23    8 O     4     4.178    -1.969    -0.464   1.900E-01       8.564
   24    8 O     4    -1.825    -1.784    -0.855   1.900E-01       8.638
   25    8 O     4    -5.026    -4.459    -1.617   1.900E-01       8.848
   26    8 O     4     2.115    -4.225    -5.622   1.900E-01       8.599
   27    8 O     4    -3.397    -3.709    -5.310   1.900E-01       8.686
   28    8 O     4    -5.154    -1.556    -2.623   1.900E-01       8.583
   29    8 O     4    -0.333     0.365    -5.778   1.900E-01       8.648
   30    8 O     4     0.510    -2.464    -4.956   1.900E-01       8.595
   31    8 O     4    -4.372    -1.363    -5.183   1.900E-01       8.580
   32    8 O     4    -1.804    -1.528    -5.735   1.900E-01       8.678
   33    8 O     4    -1.101     1.249    -1.977   1.900E-01       8.692
   34    8 O     4     0.378     4.462    -5.140   1.900E-01       8.655
   35    8 O     4    -1.898     2.163    -4.146   1.900E-01       8.530
   36    8 O     4     3.654    -3.767    -2.171   1.900E-01       8.568
   37    8 O     4    -0.636    -4.869    -7.144   1.900E-01       8.715
   38    8 O     4    -2.643    -5.126    -1.250   1.900E-01       8.618
   39    8 O     4     0.664     1.845    -3.840   1.900E-01       8.567
   40    8 O     4    -2.593     3.021    -1.229   1.900E-01       8.657
   41    8 O     4     4.451     1.241    -1.787   1.900E-01       8.504
   42    8 O     4     4.243    -0.110    -6.147   1.900E-01       8.533
   43    8 O     4    -4.808     4.752    -5.461   1.900E-01       8.549
   44    8 O     4     1.245     1.081    -1.053   1.900E-01       8.566
   45    8 O     4     3.532    -2.255    -4.533   1.900E-01       8.608
   46    8 O     4     4.074     4.659    -0.688   1.900E-01       8.685
   47    8 O     4    -3.621     3.912    -3.238   1.900E-01       8.795
   48    8 O     4    -2.329    -2.310    -3.349   1.900E-01       8.675
   49    8 O     4    -1.033     5.046    -3.111   1.900E-01       8.646
   50    8 O     4    -3.846    -3.237     0.177   1.900E-01       8.576
   51    8 O     4     4.628     4.609    -3.276   1.900E-01       8.556
   52    8 O     4     0.397    -4.713    -1.158   1.900E-01       8.627
   53    8 O     4     0.319    -1.542    -2.467   1.900E-01       8.534
   54    8 O     4     1.744    -0.924    -6.101   1.900E-01       8.889
   55    8 O     4    -0.849     2.690    -6.461   1.900E-01       8.752
   56    8 O     4     2.518     1.695    -6.617   1.900E-01       8.620
   57   14 SI    6     0.553     0.427     0.313   6.000E-01      13.393
   58   14 SI    6     3.243     3.441     0.125   6.000E-01      13.431
   59   14 SI    6     1.747     4.549     1.578   6.000E-01      14.108
   60   14 SI    6     4.458     1.948     1.530   6.000E-01      14.054
   61   14 SI    6     0.409     3.175     2.980   6.000E-01      13.990
   62   14 SI    6     3.140     0.524     2.940   6.000E-01      13.983
   63   14 SI    6     1.785     1.824     4.395   6.000E-01      13.994
   64   14 SI    6     4.456     4.482     4.518   6.000E-01      13.994
   65   14 SI    6     0.821    -4.374     0.414   6.000E-01      13.555
   66   14 SI    6     2.926    -2.642     0.462   6.000E-01      13.636
   67   14 SI    6     1.827    -0.990     1.677   6.000E-01      14.093
   68   14 SI    6     4.080    -3.327     2.289   6.000E-01      13.945
   69   14 SI    6     0.360    -2.218     3.132   6.000E-01      14.012
   70   14 SI    6     2.966    -5.064     3.231   6.000E-01      14.054
   71   14 SI    6     1.628    -3.650     4.540   6.000E-01      13.988
   72   14 SI    6     4.448    -0.816     4.437   6.000E-01      14.009
   73   14 SI    6    -4.572     1.030     0.480   6.000E-01      13.805
   74   14 SI    6    -2.781     2.647     0.396   6.000E-01      13.653
   75   14 SI    6    -3.682     4.507     1.575   6.000E-01      14.021
   76   14 SI    6    -0.936     1.747     1.611   6.000E-01      14.100
   77   14 SI    6    -5.104     3.214     3.020   6.000E-01      14.033
   78   14 SI    6    -2.252     0.451     3.114   6.000E-01      14.040
   79   14 SI    6    -3.680     1.824     4.397   6.000E-01      13.976
   80   14 SI    6    -0.941     4.495     4.444   6.000E-01      13.996
   81   14 SI    6    -3.959    -4.764    -0.348   6.000E-01      13.096
   82   14 SI    6    -2.561    -2.269     0.529   6.000E-01      13.280
   83   14 SI    6    -3.740    -0.726     1.765   6.000E-01      14.048
   84   14 SI    6    -0.994    -3.523     1.737   6.000E-01      14.102
   85   14 SI    6    -5.000    -2.180     3.165   6.000E-01      14.001
   86   14 SI    6    -2.324    -4.961     3.064   6.000E-01      14.001
   87   14 SI    6    -3.687    -3.631     4.512   6.000E-01      13.997
   88   14 SI    6    -0.964    -0.888     4.553   6.000E-01      13.993
   89   14 SI    6     0.445     0.492     5.842   6.000E-01      13.987
   90   14 SI    6     3.125     3.147     5.876   6.000E-01      14.005
   91   14 SI    6     0.311    -4.981     6.003   6.000E-01      13.991
   92   14 SI    6     3.090    -2.261     5.733   6.000E-01      13.997
   93   14 SI    6    -5.017     0.456     5.855   6.000E-01      13.993
   94   14 SI    6    -2.307     3.143     5.780   6.000E-01      13.999
   95   14 SI    6    -5.055    -4.989     5.929   6.000E-01      13.991
   96   14 SI    6    -2.360    -2.253     5.899   6.000E-01      14.006
   97   14 SI    6     1.751     4.416     7.340   6.000E-01      14.003
   98   14 SI    6     4.557     1.852     7.232   6.000E-01      13.997
   99   14 SI    6     0.333     3.155     8.773   6.000E-01      13.988
  100   14 SI    6     3.228     0.409     8.436   6.000E-01      14.065
  101   14 SI    6     1.365     1.099     9.685   6.000E-01      14.007
  102   14 SI    6     4.896     4.898     9.792   6.000E-01      13.989
  103   14 SI    6     1.788    -0.954     7.151   6.000E-01      13.992
  104   14 SI    6     4.440    -3.534     7.196   6.000E-01      14.010
  105   14 SI    6     0.311    -2.165     8.579   6.000E-01      14.066
  106   14 SI    6     3.108    -4.873     8.602   6.000E-01      14.037
  107   14 SI    6     1.476    -3.702     9.879   6.000E-01      13.616
  108   14 SI    6     4.625    -0.628    10.036   6.000E-01      14.083
  109   14 SI    6    -3.642     4.371     7.289   6.000E-01      14.000
  110   14 SI    6    -0.959     1.849     7.201   6.000E-01      14.041
  111   14 SI    6    -4.919     3.012     8.826   6.000E-01      13.979
  112   14 SI    6    -2.435     0.674     8.602   6.000E-01      14.079
  113   14 SI    6    -3.656     2.204   -10.343   6.000E-01      13.094
  114   14 SI    6    -0.622     4.891    10.161   6.000E-01      13.931
  115   14 SI    6    -3.708    -0.914     7.333   6.000E-01      13.993
  116   14 SI    6    -1.091    -3.597     7.334   6.000E-01      14.002
  117   14 SI    6    -5.131    -2.287     8.749   6.000E-01      13.968
  118   14 SI    6    -2.344    -5.043     8.724   6.000E-01      14.068
  119   14 SI    6    -4.209    -4.142     9.993   6.000E-01      14.015
  120   14 SI    6    -0.575    -0.243     9.650   6.000E-01      13.661
  121   14 SI    6    -2.164     1.758    -7.525   6.000E-01      13.319
  122   14 SI    6     2.531     3.293    -6.994   6.000E-01      12.873
  123   14 SI    6     2.568    -0.613   -10.035   6.000E-01      13.334
  124   14 SI    6    -3.198    -3.981    -8.964   6.000E-01      13.312
  125   14 SI    6     2.735    -3.376    -8.564   6.000E-01      12.720
  126   14 SI    6    -0.277    -3.570    -8.019   6.000E-01      12.665
  127   14 SI    6    -2.744     4.360    -9.313   6.000E-01      13.436
  128   14 SI    6    -5.301     0.140    -8.821   6.000E-01      13.300
  129   14 SI    6    -2.040    -0.385    -8.708   6.000E-01      13.371
  130   14 SI    6     4.285     4.647    -9.152   6.000E-01      12.974
  131   14 SI    6    -3.540    -5.149    -6.042   6.000E-01      12.781
  132   14 SI    6     0.420     4.971    -2.360   6.000E-01      12.739
  133   14 SI    6     5.295    -1.306    -6.264   6.000E-01      12.765
  134   14 SI    6    -5.320     1.249    -2.859   6.000E-01      12.922
  135   14 SI    6     4.723    -2.492    -1.911   6.000E-01      12.837
  136   14 SI    6    -2.964    -2.210    -4.883   6.000E-01      12.623
  137   14 SI    6     1.868     5.117    -4.935   6.000E-01      12.815
  138   14 SI    6    -2.437     2.038    -2.573   6.000E-01      12.857
  139   14 SI    6     0.391     1.900    -2.201   6.000E-01      12.862
  140   14 SI    6    -0.606     4.451    -6.410   6.000E-01      12.720
  141   14 SI    6    -0.544     1.756    -4.987   6.000E-01      12.707
  142   14 SI    6    -5.061     3.853    -4.124   6.000E-01      12.716
  143   14 SI    6     4.413    -5.208    -1.997   6.000E-01      12.761
  144   14 SI    6     2.773     0.117    -6.859   6.000E-01      12.591
  145   14 SI    6     2.169    -2.577    -5.269   6.000E-01      12.789
  146   14 SI    6    -0.131    -1.304    -5.953   6.000E-01      12.746
  147   14 SI    6    -1.165    -1.875    -2.312   6.000E-01      12.874
  148   14 SI    6    -2.628     5.257    -2.854   6.000E-01      12.887
 *******************************************************************************
 DE(K)                   0.000E+00  ENERGY LEVEL SHIFTING        0.00000
 TOTAL ENERGY -3.0844298301946E+04  CONVERGENCE ON ENER        4.316E-05
 KIN. ENERGY   3.0736332417357E+04  VIR. COEFF.           1.03675588E+00
 N. OF SCF CYCLES              135  FERMI ENERGY              -0.108E+00
 WEIGHT OF F(I) IN F(I+1)      95
 SHRINK. FACT.(MONKH.)     2  2  2  SHRINKING FACTOR(GILAT NET)        2
 NUMBER OF K POINTS IN THE IBZ   8  CELL VOLUME (A.U.)       16760.28806
 *******************************************************************************

 GCALCO - MAX INDICES DIRECT LATTICE VECTOR    18    19     9
 NO.OF VECTORS CREATED 6999 STARS 1059 RMAX   303.51649 BOHR

 DIMENSIONS  P(G)= 6323414 F(G)= 1128503 P(G),F(G) (IRR) 3170163
 MAX G-VECTOR INDEX FOR 1- AND 2-ELECTRON INTEGRALS  45


 CAPPA:IS1  2;IS2  2;IS3  2; K PTS MONK NET    8; SYMMOPS: K SPACE  2;G SPACE  1


 CAPPA:IS1  6;IS2  6;IS3  3; K PTS MONK NET   56; SYMMOPS: K SPACE  2;G SPACE  1

 *******************************************************************************
 RESTART WITH NEW K POINTS NET
 *******************************************************************************
 POINTS IN THE IBZ                  56 POINTS(GILAT NET)                56
 SHRINK FACTORS(MONK.)         6  6  3 SHRINK FACTOR(GILAT)              6
 *******************************************************************************
 *** K POINTS COORDINATES (OBLIQUE COORDINATES IN UNITS OF IS =  6)
   1-R(  0  0  0)   2-C(  1  0  0)   3-C(  2  0  0)   4-R(  3  0  0)
   5-C(  0  1  0)   6-C(  1  1  0)   7-C(  2  1  0)   8-C(  3  1  0)
   9-C(  4  1  0)  10-C(  5  1  0)  11-C(  0  2  0)  12-C(  1  2  0)
  13-C(  2  2  0)  14-C(  3  2  0)  15-C(  4  2  0)  16-C(  5  2  0)
  17-R(  0  3  0)  18-C(  1  3  0)  19-C(  2  3  0)  20-R(  3  3  0)
  21-C(  0  0  1)  22-C(  1  0  1)  23-C(  2  0  1)  24-C(  3  0  1)
  25-C(  4  0  1)  26-C(  5  0  1)  27-C(  0  1  1)  28-C(  1  1  1)
  29-C(  2  1  1)  30-C(  3  1  1)  31-C(  4  1  1)  32-C(  5  1  1)
  33-C(  0  2  1)  34-C(  1  2  1)  35-C(  2  2  1)  36-C(  3  2  1)
  37-C(  4  2  1)  38-C(  5  2  1)  39-C(  0  3  1)  40-C(  1  3  1)
  41-C(  2  3  1)  42-C(  3  3  1)  43-C(  4  3  1)  44-C(  5  3  1)
  45-C(  0  4  1)  46-C(  1  4  1)  47-C(  2  4  1)  48-C(  3  4  1)
  49-C(  4  4  1)  50-C(  5  4  1)  51-C(  0  5  1)  52-C(  1  5  1)
  53-C(  2  5  1)  54-C(  3  5  1)  55-C(  4  5  1)  56-C(  5  5  1)

 FERMI ENERGY AND DENSITY MATRIX CALCULATION ON COMPUTED EIGENVECTORS
 DENSITY MATRIX AT SCF CYCLE (135+1)


    ALPHA      ELECTRONS
 INSULATING STATE
 TOP OF VALENCE BANDS -    BAND    868; K   42; EIG -1.0710212E-01 AU
 TOP OF VALENCE BANDS -    BAND    868; K    1; EIG -1.1127470E-01 AU
 BOTTOM OF VIRTUAL BANDS - BAND    869; K   20; EIG -1.0687363E-01 AU
 BOTTOM OF VIRTUAL BANDS - BAND    869; K    1; EIG -1.0685975E-01 AU

    BETA       ELECTRONS
 INSULATING STATE
 TOP OF VALENCE BANDS -    BAND    868; K   20; EIG -1.0938065E-01 AU
 TOP OF VALENCE BANDS -    BAND    868; K    1; EIG -1.1127470E-01 AU
 BOTTOM OF VIRTUAL BANDS - BAND    869; K   10; EIG -9.8520367E-02 AU
 BOTTOM OF VIRTUAL BANDS - BAND    869; K    1; EIG -1.0685975E-01 AU

 CORE DENSITY MATRIX CALCULATION
 TTTTTTTTTTTTTTTTTTTTTTTTTTTTTT NEWK        TELAPSE   110653.01 TCPU   110482.19
 TTTTTTTTTTTTTTTTTTTTTTTTTTTTTT SETPRINT    TELAPSE   110653.01 TCPU   110482.19

 *******************************************************************************
 HYPERFINE ELECTRON-NUCLEAR SPIN INTERACTION TENSOR
 ANISOTROPIC COMPONENTS - THE TENSOR IS TRACELESS
 *******************************************************************************


 POINT   ATOM  MASS NO  NUCLEAR G FACTOR
    1    1 O      17      -0.7575220

 TENSOR IN ORIGINAL CARTESIAN AXES
 XX -8.202312E-04 YY -4.525770E-02 ZZ  4.607793E-02 XY  6.411871E-02 XZ  1.691647E-03 YZ  1.638740E-03

 TENSOR IN PRINCIPAL AXIS SYSTEM
 AA  4.303758E-02 BB -9.089915E-02 CC  4.786157E-02

 PRINCIPAL AXES
         X             Y             Z
 A  6.477967E-01  4.591376E-01 -6.079080E-01
 B -5.798655E-01  8.147081E-01 -2.585600E-03
 C  4.940804E-01  3.541798E-01  7.940033E-01

 ANGLES BETWEEN PRINCIPAL AXES AND ORIGINAL AXES (DEGREES)
         X             Y             Z
 A     49.624314     62.668527    127.438391
 B    125.441083     35.441488     90.148144
 C     60.390869     69.256814     37.438788


 POINT   ATOM  MASS NO  NUCLEAR G FACTOR
    2    2 O      17      -0.7575220

 TENSOR IN ORIGINAL CARTESIAN AXES
 XX -1.541466E-03 YY -1.456487E-03 ZZ  2.997952E-03 XY  2.722334E-03 XZ -9.382615E-05 YZ -1.308752E-03

 TENSOR IN PRINCIPAL AXIS SYSTEM
 AA -4.323127E-03 BB  7.983824E-04 CC  3.524745E-03

 PRINCIPAL AXES
         X             Y             Z
 A  6.924865E-01 -7.116579E-01 -1.183449E-01
 B  6.912839E-01  6.076347E-01  3.910329E-01
 C -2.063712E-01 -3.525950E-01  9.127364E-01

 ANGLES BETWEEN PRINCIPAL AXES AND ORIGINAL AXES (DEGREES)
         X             Y             Z
 A     46.172739    135.369964     96.796593
 B     46.268177     52.581331     66.981213
 C    101.909779    110.646117     24.113718


 POINT   ATOM  MASS NO  NUCLEAR G FACTOR
    3    3 O      17      -0.7575220

 TENSOR IN ORIGINAL CARTESIAN AXES
 XX -1.632686E-03 YY -1.989972E-03 ZZ  3.622657E-03 XY -6.385089E-04 XZ -7.055436E-04 YZ -4.347000E-04

 TENSOR IN PRINCIPAL AXIS SYSTEM
 AA -1.165390E-03 BB -2.571746E-03 CC  3.737136E-03

 PRINCIPAL AXES
         X             Y             Z
 A  7.746232E-01 -6.298525E-01  5.696132E-02
 B  6.203795E-01  7.742771E-01  1.249972E-01
 C -1.228336E-01 -6.148810E-02  9.905206E-01

 ANGLES BETWEEN PRINCIPAL AXES AND ORIGINAL AXES (DEGREES)
         X             Y             Z
 A     39.229113    129.039245     86.734589
 B     51.656147     39.260465     82.819406
 C     97.055669     93.525232      7.895346


 POINT   ATOM  MASS NO  NUCLEAR G FACTOR
    4    4 O      17      -0.7575220

 TENSOR IN ORIGINAL CARTESIAN AXES
 XX -1.994256E-04 YY -6.861056E-04 ZZ  8.855312E-04 XY  2.312498E-04 XZ -3.590010E-04 YZ  3.866160E-04

 TENSOR IN PRINCIPAL AXIS SYSTEM
 AA -1.329728E-04 BB -9.163194E-04 CC  1.049292E-03

 PRINCIPAL AXES
         X             Y             Z
 A  8.773272E-01  4.606995E-01  1.343613E-01
 B -4.151210E-01  8.690339E-01 -2.691740E-01
 C -2.407728E-01  1.803774E-01  9.536731E-01

 ANGLES BETWEEN PRINCIPAL AXES AND ORIGINAL AXES (DEGREES)
         X             Y             Z
 A     28.678395     62.567744     82.278312
 B    114.526937     29.653433    105.615119
 C    103.932158     79.608255     17.508349


 POINT   ATOM  MASS NO  NUCLEAR G FACTOR
    5    5 O      17      -0.7575220

 TENSOR IN ORIGINAL CARTESIAN AXES
 XX  3.689262E-03 YY -6.441969E-04 ZZ -3.045066E-03 XY -3.004741E-03 XZ -4.494485E-03 YZ -8.825367E-03

 TENSOR IN PRINCIPAL AXIS SYSTEM
 AA  5.226937E-03 BB  7.299873E-03 CC -1.252681E-02

 PRINCIPAL AXES
         X             Y             Z
 A  8.925896E-01 -4.508526E-01 -3.964124E-03
 B  3.232245E-01  6.459942E-01 -6.915327E-01
 C  3.143401E-01  6.159736E-01  7.223343E-01

 ANGLES BETWEEN PRINCIPAL AXES AND ORIGINAL AXES (DEGREES)
         X             Y             Z
 A     26.799518    116.798399     90.227128
 B     71.141958     49.759743    133.751555
 C     71.679019     51.977304     43.752457


 POINT   ATOM  MASS NO  NUCLEAR G FACTOR
    6    6 O      17      -0.7575220

 TENSOR IN ORIGINAL CARTESIAN AXES
 XX  4.672811E-04 YY -1.108594E-03 ZZ  6.413128E-04 XY -1.083304E-05 XZ -4.828675E-05 YZ -3.291043E-05

 TENSOR IN PRINCIPAL AXIS SYSTEM
 AA  4.550051E-04 BB -1.109300E-03 CC  6.542950E-04

 PRINCIPAL AXES
         X             Y             Z
 A  9.684576E-01 -1.194838E-02  2.488917E-01
 B  7.451220E-03  9.997917E-01  1.900303E-02
 C -2.490669E-01 -1.654909E-02  9.683449E-01

 ANGLES BETWEEN PRINCIPAL AXES AND ORIGINAL AXES (DEGREES)
         X             Y             Z
 A     14.428894     90.684608     75.588063
 B     89.573073      1.169583     88.911141
 C    104.422301     90.948236     14.454794


 POINT   ATOM  MASS NO  NUCLEAR G FACTOR
    7    7 O      17      -0.7575220

 TENSOR IN ORIGINAL CARTESIAN AXES
 XX  2.448423E-03 YY -4.789688E-04 ZZ -1.969454E-03 XY -2.607901E-04 XZ -1.958597E-03 YZ -2.153339E-03

 TENSOR IN PRINCIPAL AXIS SYSTEM
 AA  3.281275E-03 BB  7.082728E-04 CC -3.989547E-03

 PRINCIPAL AXES
         X             Y             Z
 A  8.986271E-01  1.694201E-01 -4.046804E-01
 B -3.472758E-01  8.383640E-01 -4.201729E-01
 C  2.680838E-01  5.181144E-01  8.122121E-01

 ANGLES BETWEEN PRINCIPAL AXES AND ORIGINAL AXES (DEGREES)
         X             Y             Z
 A     26.021817     80.245894    113.871101
 B    110.320783     33.032233    114.845502
 C     74.449729     58.794144     35.687372


 POINT   ATOM  MASS NO  NUCLEAR G FACTOR
    8    8 O      17      -0.7575220

 TENSOR IN ORIGINAL CARTESIAN AXES
 XX -3.474777E-02 YY  1.768842E-02 ZZ  1.705935E-02 XY  7.168363E-03 XZ -1.123423E-02 YZ  1.894581E-03

 TENSOR IN PRINCIPAL AXIS SYSTEM
 AA -3.806226E-02 BB  1.849696E-02 CC  1.956531E-02

 PRINCIPAL AXES
         X             Y             Z
 A  9.704327E-01 -1.316522E-01  2.023070E-01
 B  2.004163E-01  9.065848E-01 -3.713992E-01
 C -1.345129E-01  4.009636E-01  9.061647E-01

 ANGLES BETWEEN PRINCIPAL AXES AND ORIGINAL AXES (DEGREES)
         X             Y             Z
 A     13.967531     97.565078     78.328099
 B     78.438694     24.962424    111.801936
 C     97.730457     66.361571     25.019390


 POINT   ATOM  MASS NO  NUCLEAR G FACTOR
    9    9 O      17      -0.7575220

 TENSOR IN ORIGINAL CARTESIAN AXES
 XX -1.482204E-03 YY  4.667260E-04 ZZ  1.015478E-03 XY  1.365252E-04 XZ  7.105818E-04 YZ -5.355582E-04

 TENSOR IN PRINCIPAL AXIS SYSTEM
 AA -1.704802E-03 BB  2.577546E-04 CC  1.447048E-03

 PRINCIPAL AXES
         X             Y             Z
 A  9.532081E-01 -1.275305E-01 -2.740990E-01
 B  2.346185E-01  8.838480E-01  4.046811E-01
 C  1.906527E-01 -4.500540E-01  8.724121E-01

 ANGLES BETWEEN PRINCIPAL AXES AND ORIGINAL AXES (DEGREES)
         X             Y             Z
 A     17.596693     97.326910    105.908328
 B     76.430866     27.889906     66.128855
 C     79.009122    116.747149     29.259833


 POINT   ATOM  MASS NO  NUCLEAR G FACTOR
   10   10 O      17      -0.7575220

 TENSOR IN ORIGINAL CARTESIAN AXES
 XX  2.267317E-02 YY  1.827130E-02 ZZ -4.094447E-02 XY  3.021549E-02 XZ  5.136953E-02 YZ -5.719549E-02

 TENSOR IN PRINCIPAL AXIS SYSTEM
 AA  5.049740E-02 BB  5.331859E-02 CC -1.038160E-01

 PRINCIPAL AXES
         X             Y             Z
 A  8.633669E-01  4.659766E-01  1.935546E-01
 B -2.700998E-01  7.508157E-01 -6.027618E-01
 C -4.261967E-01  4.681256E-01  7.740897E-01

 ANGLES BETWEEN PRINCIPAL AXES AND ORIGINAL AXES (DEGREES)
         X             Y             Z
 A     30.303250     62.226557     78.839702
 B    105.670207     41.338910    127.067955
 C    115.226434     62.087309     39.277428


 POINT   ATOM  MASS NO  NUCLEAR G FACTOR
   11   11 O      17      -0.7575220

 TENSOR IN ORIGINAL CARTESIAN AXES
 XX  5.960305E-04 YY -3.148314E-03 ZZ  2.552284E-03 XY -1.322316E-03 XZ  9.323563E-04 YZ -1.715890E-04

 TENSOR IN PRINCIPAL AXIS SYSTEM
 AA  5.703294E-04 BB -3.570578E-03 CC  3.000248E-03

 PRINCIPAL AXES
         X             Y             Z
 A  8.575535E-01 -2.851844E-01 -4.281026E-01
 B  3.064956E-01  9.516619E-01 -2.000181E-02
 C  4.131132E-01 -1.140589E-01  9.035088E-01

 ANGLES BETWEEN PRINCIPAL AXES AND ORIGINAL AXES (DEGREES)
         X             Y             Z
 A     30.957011    106.569873    115.347208
 B     72.151837     17.887410     91.146096
 C     65.599450     96.549348     25.376819


 POINT   ATOM  MASS NO  NUCLEAR G FACTOR
   12   12 O      17      -0.7575220

 TENSOR IN ORIGINAL CARTESIAN AXES
 XX  2.544352E-03 YY  1.237622E-04 ZZ -2.668114E-03 XY -1.228031E-03 XZ  3.377726E-03 YZ -1.980492E-03

 TENSOR IN PRINCIPAL AXIS SYSTEM
 AA  5.027785E-03 BB -3.495410E-04 CC -4.678244E-03

 PRINCIPAL AXES
         X             Y             Z
 A  8.049582E-01 -3.841775E-01  4.521614E-01
 B  4.643856E-01  8.822706E-01 -7.710180E-02
 C -3.693079E-01  2.720410E-01  8.885974E-01

 ANGLES BETWEEN PRINCIPAL AXES AND ORIGINAL AXES (DEGREES)
         X             Y             Z
 A     36.393784    112.592690     63.117556
 B     62.329534     28.082516     94.421996
 C    111.672942     74.214247     27.302477


 POINT   ATOM  MASS NO  NUCLEAR G FACTOR
   13   13 O      17      -0.7575220

 TENSOR IN ORIGINAL CARTESIAN AXES
 XX -2.683777E-03 YY  3.018373E-04 ZZ  2.381940E-03 XY  1.216275E-05 XZ  1.773735E-04 YZ  9.602777E-04

 TENSOR IN PRINCIPAL AXIS SYSTEM
 AA -2.690143E-03 BB -7.259935E-05 CC  2.762743E-03

 PRINCIPAL AXES
         X             Y             Z
 A  9.993087E-01  7.616555E-03 -3.638840E-02
 B -2.031792E-02  9.315728E-01 -3.629866E-01
 C  3.113374E-02  3.634750E-01  9.310836E-01

 ANGLES BETWEEN PRINCIPAL AXES AND ORIGINAL AXES (DEGREES)
         X             Y             Z
 A      2.130575     89.563599     92.085362
 B     91.164211     21.318667    111.283725
 C     88.215880     68.686240     21.395639


 POINT   ATOM  MASS NO  NUCLEAR G FACTOR
   14   14 O      17      -0.7575220

 TENSOR IN ORIGINAL CARTESIAN AXES
 XX  7.850063E-05 YY -4.455298E-04 ZZ  3.670291E-04 XY -1.426111E-03 XZ  1.214057E-03 YZ  1.453736E-03

 TENSOR IN PRINCIPAL AXIS SYSTEM
 AA  1.266450E-03 BB -2.775149E-03 CC  1.508699E-03

 PRINCIPAL AXES
         X             Y             Z
 A  7.653873E-01 -6.435318E-01 -7.006785E-03
 B  5.483892E-01  6.578499E-01 -5.162391E-01
 C  3.368257E-01  3.912804E-01  8.564159E-01

 ANGLES BETWEEN PRINCIPAL AXES AND ORIGINAL AXES (DEGREES)
         X             Y             Z
 A     40.058541    130.055686     90.401462
 B     56.743422     48.863903    121.080313
 C     70.316404     66.965808     31.083494


 POINT   ATOM  MASS NO  NUCLEAR G FACTOR
   15   15 O      17      -0.7575220

 TENSOR IN ORIGINAL CARTESIAN AXES
 XX -1.107081E-03 YY  7.701326E-05 ZZ  1.030068E-03 XY  6.429083E-05 XZ -9.104816E-05 YZ  1.397811E-03

 TENSOR IN PRINCIPAL AXIS SYSTEM
 AA -1.155266E-03 BB -8.755074E-04 CC  2.030774E-03

 PRINCIPAL AXES
         X             Y             Z
 A  9.105929E-01 -3.299090E-01  2.489592E-01
 B  4.131392E-01  7.435977E-01 -5.257171E-01
 C -1.168664E-02  5.815691E-01  8.134131E-01

 ANGLES BETWEEN PRINCIPAL AXES AND ORIGINAL AXES (DEGREES)
         X             Y             Z
 A     24.412587    109.263252     75.584071
 B     65.597810     41.961211    121.716533
 C     90.669610     54.439021     35.569248


 POINT   ATOM  MASS NO  NUCLEAR G FACTOR
   16   16 O      17      -0.7575220

 TENSOR IN ORIGINAL CARTESIAN AXES
 XX -1.675439E-03 YY  7.675239E-04 ZZ  9.079149E-04 XY -4.079291E-03 XZ  4.549043E-03 YZ  3.195331E-03

 TENSOR IN PRINCIPAL AXIS SYSTEM
 AA -8.129789E-03 BB  3.773878E-03 CC  4.355911E-03

 PRINCIPAL AXES
         X             Y             Z
 A  6.872666E-01  5.032347E-01 -5.238506E-01
 B -4.796618E-01  8.559674E-01  1.929880E-01
 C  5.455173E-01  1.186369E-01  8.296603E-01

 ANGLES BETWEEN PRINCIPAL AXES AND ORIGINAL AXES (DEGREES)
         X             Y             Z
 A     46.585873     59.785764    121.590898
 B    118.663317     31.133228     78.872786
 C     56.939979     83.186560     33.936144


 POINT   ATOM  MASS NO  NUCLEAR G FACTOR
   17   17 O      17      -0.7575220

 TENSOR IN ORIGINAL CARTESIAN AXES
 XX -3.233671E-02 YY  2.719345E-02 ZZ  5.143264E-03 XY  1.232591E-02 XZ -4.063720E-02 YZ  9.921094E-03

 TENSOR IN PRINCIPAL AXIS SYSTEM
 AA -6.114859E-02 BB  2.879246E-02 CC  3.235614E-02

 PRINCIPAL AXES
         X             Y             Z
 A  8.274417E-01 -1.753590E-01  5.334692E-01
 B  4.348648E-01  8.011546E-01 -4.111495E-01
 C -3.552926E-01  5.721892E-01  7.391662E-01

 ANGLES BETWEEN PRINCIPAL AXES AND ORIGINAL AXES (DEGREES)
         X             Y             Z
 A     34.163168    100.099549     57.759843
 B     64.223310     36.759499    114.277066
 C    110.811376     55.096971     42.339563


 POINT   ATOM  MASS NO  NUCLEAR G FACTOR
   18   18 O      17      -0.7575220

 TENSOR IN ORIGINAL CARTESIAN AXES
 XX -1.535198E-03 YY  7.646022E-04 ZZ  7.705960E-04 XY -4.739131E-05 XZ -8.640544E-05 YZ -5.403215E-04

 TENSOR IN PRINCIPAL AXIS SYSTEM
 AA -1.540525E-03 BB  2.323231E-04 CC  1.308202E-03

 PRINCIPAL AXES
         X             Y             Z
 A  9.985257E-01  3.097686E-02  4.457383E-02
 B -5.338455E-02  7.090279E-01  7.031568E-01
 C -9.822496E-03 -7.044997E-01  7.096363E-01

 ANGLES BETWEEN PRINCIPAL AXES AND ORIGINAL AXES (DEGREES)
         X             Y             Z
 A      3.111583     88.224873     87.445261
 B     93.060164     44.844122     45.319171
 C     90.562797    134.789142     44.794670


 POINT   ATOM  MASS NO  NUCLEAR G FACTOR
   19   19 O      17      -0.7575220

 TENSOR IN ORIGINAL CARTESIAN AXES
 XX -6.805363E-03 YY  3.033184E-03 ZZ  3.772179E-03 XY -1.216943E-03 XZ -2.759324E-04 YZ  2.617707E-03

 TENSOR IN PRINCIPAL AXIS SYSTEM
 AA -6.953835E-03 BB  8.285467E-04 CC  6.125288E-03

 PRINCIPAL AXES
         X             Y             Z
 A  9.925141E-01  1.220556E-01 -4.254995E-03
 B -9.380884E-02  7.395867E-01 -6.664918E-01
 C -7.820210E-02  6.619017E-01  7.455002E-01

 ANGLES BETWEEN PRINCIPAL AXES AND ORIGINAL AXES (DEGREES)
         X             Y             Z
 A      7.015031     82.989250     90.243794
 B     95.382765     42.303776    131.796876
 C     94.485230     48.554929     41.797920


 POINT   ATOM  MASS NO  NUCLEAR G FACTOR
   20   20 O      17      -0.7575220

 TENSOR IN ORIGINAL CARTESIAN AXES
 XX -9.347756E-03 YY  1.929217E-03 ZZ  7.418538E-03 XY -7.965969E-03 XZ -1.148519E-02 YZ -1.351293E-02

 TENSOR IN PRINCIPAL AXIS SYSTEM
 AA -2.285033E-02 BB  3.716030E-03 CC  1.913430E-02

 PRINCIPAL AXES
         X             Y             Z
 A  7.132675E-01  4.981618E-01  4.930358E-01
 B -6.796635E-01  6.634188E-01  3.129426E-01
 C -1.711931E-01 -5.583102E-01  8.117774E-01

 ANGLES BETWEEN PRINCIPAL AXES AND ORIGINAL AXES (DEGREES)
         X             Y             Z
 A     44.498609     60.121538     60.459688
 B    132.817351     48.438868     71.763342
 C     99.857197    123.939019     35.730043


 POINT   ATOM  MASS NO  NUCLEAR G FACTOR
   21   21 O      17      -0.7575220

 TENSOR IN ORIGINAL CARTESIAN AXES
 XX -1.399774E-02 YY -4.034965E-02 ZZ  5.434740E-02 XY  8.976811E-04 XZ -1.854357E-02 YZ -1.016516E-03

 TENSOR IN PRINCIPAL AXIS SYSTEM
 AA -1.868711E-02 BB -4.038202E-02 CC  5.906913E-02

 PRINCIPAL AXES
         X             Y             Z
 A  9.687552E-01  2.858381E-02  2.463662E-01
 B -3.069123E-02  9.995178E-01  4.717660E-03
 C -2.461125E-01 -1.213154E-02  9.691653E-01

 ANGLES BETWEEN PRINCIPAL AXES AND ORIGINAL AXES (DEGREES)
         X             Y             Z
 A     14.360307     88.362045     75.737414
 B     91.758754      1.779418     89.729697
 C    104.247591     90.695103     14.265256


 POINT   ATOM  MASS NO  NUCLEAR G FACTOR
   22   22 O      17      -0.7575220

 TENSOR IN ORIGINAL CARTESIAN AXES
 XX  1.709767E-02 YY  1.118924E-02 ZZ -2.828690E-02 XY  2.836874E-03 XZ  8.566777E-03 YZ -1.948637E-02

 TENSOR IN PRINCIPAL AXIS SYSTEM
 AA  1.818953E-02 BB  1.957318E-02 CC -3.776271E-02

 PRINCIPAL AXES
         X             Y             Z
 A  8.380273E-01  5.408193E-01 -7.228209E-02
 B -5.210398E-01  7.538885E-01 -4.002121E-01
 C -1.619498E-01  3.730505E-01  9.135675E-01

 ANGLES BETWEEN PRINCIPAL AXES AND ORIGINAL AXES (DEGREES)
         X             Y             Z
 A     33.067606     57.260572     94.145074
 B    121.402024     41.071658    113.591438
 C     99.320086     68.096126     23.996894


 POINT   ATOM  MASS NO  NUCLEAR G FACTOR
   23   23 O      17      -0.7575220

 TENSOR IN ORIGINAL CARTESIAN AXES
 XX  7.397230E-03 YY  7.176349E-03 ZZ -1.457358E-02 XY  3.357362E-02 XZ -2.454228E-02 YZ -2.628393E-02

 TENSOR IN PRINCIPAL AXIS SYSTEM
 AA  5.853169E-02 BB -2.607333E-02 CC -3.245836E-02

 PRINCIPAL AXES
         X             Y             Z
 A  6.308324E-01  6.382405E-01 -4.412478E-01
 B -7.556759E-01  6.344112E-01 -1.627156E-01
 C  1.760808E-01  4.360866E-01  8.825101E-01

 ANGLES BETWEEN PRINCIPAL AXES AND ORIGINAL AXES (DEGREES)
         X             Y             Z
 A     50.888439     50.339260    116.183522
 B    139.084462     50.623672     99.364558
 C     79.858438     64.145543     28.053351


 POINT   ATOM  MASS NO  NUCLEAR G FACTOR
   24   24 O      17      -0.7575220

 TENSOR IN ORIGINAL CARTESIAN AXES
 XX  1.392338E-02 YY  1.227362E-03 ZZ -1.515074E-02 XY  2.457063E-02 XZ  1.131907E-02 YZ  1.196174E-02

 TENSOR IN PRINCIPAL AXIS SYSTEM
 AA  3.795066E-02 BB -1.629453E-02 CC -2.165613E-02

 PRINCIPAL AXES
         X             Y             Z
 A  7.475627E-01  5.957955E-01  2.935604E-01
 B -6.504265E-01  5.671697E-01  5.052364E-01
 C  1.345191E-01 -5.686354E-01  8.115161E-01

 ANGLES BETWEEN PRINCIPAL AXES AND ORIGINAL AXES (DEGREES)
         X             Y             Z
 A     41.620309     53.430636     72.928769
 B    130.573765     55.446902     59.652950
 C     82.269190    124.655121     35.755672


 POINT   ATOM  MASS NO  NUCLEAR G FACTOR
   25   25 O      17      -0.7575220

 TENSOR IN ORIGINAL CARTESIAN AXES
 XX -1.936186E-03 YY  2.549267E-02 ZZ -2.355648E-02 XY -2.615477E-03 XZ  3.900026E-02 YZ -1.840134E-03

 TENSOR IN PRINCIPAL AXIS SYSTEM
 AA  2.999354E-02 BB  2.322370E-02 CC -5.321724E-02

 PRINCIPAL AXES
         X             Y             Z
 A  6.494966E-01 -5.789507E-01  4.929202E-01
 B  4.600573E-01  8.153612E-01  3.514732E-01
 C -6.053936E-01 -1.509143E-03  7.959248E-01

 ANGLES BETWEEN PRINCIPAL AXES AND ORIGINAL AXES (DEGREES)
         X             Y             Z
 A     49.496342    125.376773     60.467304
 B     62.609194     35.376911     69.422549
 C    127.257172     90.086468     37.257307


 POINT   ATOM  MASS NO  NUCLEAR G FACTOR
   26   26 O      17      -0.7575220

 TENSOR IN ORIGINAL CARTESIAN AXES
 XX -1.861210E-03 YY  4.646635E-04 ZZ  1.396546E-03 XY -3.095078E-04 XZ  4.116433E-04 YZ  7.257431E-04

 TENSOR IN PRINCIPAL AXIS SYSTEM
 AA -1.980569E-03 BB  1.747269E-04 CC  1.805842E-03

 PRINCIPAL AXES
         X             Y             Z
 A  9.733165E-01  1.692028E-01 -1.550012E-01
 B -2.214826E-01  8.693600E-01 -4.417677E-01
 C  6.000354E-02  4.643099E-01  8.836379E-01

 ANGLES BETWEEN PRINCIPAL AXES AND ORIGINAL AXES (DEGREES)
         X             Y             Z
 A     13.265674     80.258531     98.916867
 B    102.796126     29.615650    116.216722
 C     86.559984     62.334433     27.915637


 POINT   ATOM  MASS NO  NUCLEAR G FACTOR
   27   27 O      17      -0.7575220

 TENSOR IN ORIGINAL CARTESIAN AXES
 XX  6.577093E-02 YY  1.643109E-02 ZZ -8.220202E-02 XY  2.376622E-02 XZ -3.773241E-02 YZ  9.928499E-02

 TENSOR IN PRINCIPAL AXIS SYSTEM
 AA  7.483531E-02 BB  7.800469E-02 CC -1.528400E-01

 PRINCIPAL AXES
         X             Y             Z
 A  9.749319E-01  2.001119E-02 -2.216016E-01
 B  9.778475E-02  8.560802E-01  5.075084E-01
 C  1.998646E-01 -5.164554E-01  8.326632E-01

 ANGLES BETWEEN PRINCIPAL AXES AND ORIGINAL AXES (DEGREES)
         X             Y             Z
 A     12.856104     88.853367    102.803118
 B     84.388379     31.120722     59.501990
 C     78.470961    121.094788     33.626712


 POINT   ATOM  MASS NO  NUCLEAR G FACTOR
   28   28 O      17      -0.7575220

 TENSOR IN ORIGINAL CARTESIAN AXES
 XX -5.693750E-03 YY -8.382987E-03 ZZ  1.407674E-02 XY  5.219724E-03 XZ -6.086377E-03 YZ  8.489936E-03

 TENSOR IN PRINCIPAL AXIS SYSTEM
 AA -1.654129E-03 BB -1.604719E-02 CC  1.770131E-02

 PRINCIPAL AXES
         X             Y             Z
 A  7.991830E-01  6.008982E-01 -1.509502E-02
 B -5.717642E-01  7.522079E-01 -3.275194E-01
 C -1.854512E-01  2.703788E-01  9.447239E-01

 ANGLES BETWEEN PRINCIPAL AXES AND ORIGINAL AXES (DEGREES)
         X             Y             Z
 A     36.947844     53.065746     90.864914
 B    124.873344     41.218006    109.118284
 C    100.687442     74.313194     19.139368


 POINT   ATOM  MASS NO  NUCLEAR G FACTOR
   29   29 O      17      -0.7575220

 TENSOR IN ORIGINAL CARTESIAN AXES
 XX -6.186441E-04 YY -1.669083E-03 ZZ  2.287727E-03 XY  2.355214E-04 XZ  2.682893E-04 YZ -5.096402E-04

 TENSOR IN PRINCIPAL AXIS SYSTEM
 AA -5.759960E-04 BB -1.795144E-03 CC  2.371140E-03

 PRINCIPAL AXES
         X             Y             Z
 A  9.713451E-01  2.324326E-01 -4.963624E-02
 B -2.240431E-01  9.651562E-01  1.351967E-01
 C  7.933086E-02 -1.202020E-01  9.895747E-01

 ANGLES BETWEEN PRINCIPAL AXES AND ORIGINAL AXES (DEGREES)
         X             Y             Z
 A     13.749268     76.559666     92.845116
 B    102.946614     15.169435     82.230004
 C     85.449895     96.903762      8.280564


 POINT   ATOM  MASS NO  NUCLEAR G FACTOR
   30   30 O      17      -0.7575220

 TENSOR IN ORIGINAL CARTESIAN AXES
 XX -2.491954E-03 YY -9.119766E-04 ZZ  3.403931E-03 XY -1.570121E-03 XZ  5.293397E-04 YZ  1.791740E-03

 TENSOR IN PRINCIPAL AXIS SYSTEM
 AA -3.746525E-03 BB -3.044924E-04 CC  4.051017E-03

 PRINCIPAL AXES
         X             Y             Z
 A  7.972186E-01  5.690329E-01 -2.016037E-01
 B -6.036625E-01  7.481898E-01 -2.753244E-01
 C -5.830759E-03  3.411943E-01  9.399747E-01

 ANGLES BETWEEN PRINCIPAL AXES AND ORIGINAL AXES (DEGREES)
         X             Y             Z
 A     37.134684     55.317188    101.630756
 B    127.132660     41.566182    105.981345
 C     90.334080     70.050344     19.952692


 POINT   ATOM  MASS NO  NUCLEAR G FACTOR
   31   31 O      17      -0.7575220

 TENSOR IN ORIGINAL CARTESIAN AXES
 XX  3.364359E-03 YY -6.789157E-03 ZZ  3.424799E-03 XY  1.098738E-04 XZ -3.157841E-03 YZ -4.535896E-03

 TENSOR IN PRINCIPAL AXIS SYSTEM
 AA  1.203485E-03 BB -8.604399E-03 CC  7.400914E-03

 PRINCIPAL AXES
         X             Y             Z
 A  7.940861E-01 -2.916991E-01  5.332344E-01
 B  8.964625E-02  9.239253E-01  3.719215E-01
 C -6.011579E-01 -2.475352E-01  7.598259E-01

 ANGLES BETWEEN PRINCIPAL AXES AND ORIGINAL AXES (DEGREES)
         X             Y             Z
 A     37.430982    106.959705     57.775747
 B     84.856743     22.493146     68.165832
 C    126.952873    104.331705     40.551144


 POINT   ATOM  MASS NO  NUCLEAR G FACTOR
   32   32 O      17      -0.7575220

 TENSOR IN ORIGINAL CARTESIAN AXES
 XX  1.991530E-04 YY -2.359036E-03 ZZ  2.159883E-03 XY -1.781194E-03 XZ  1.461083E-03 YZ  3.072549E-03

 TENSOR IN PRINCIPAL AXIS SYSTEM
 AA  1.110093E-03 BB -4.909199E-03 CC  3.799106E-03

 PRINCIPAL AXES
         X             Y             Z
 A  8.990312E-01 -4.370031E-01  2.777129E-02
 B  4.047390E-01  8.051011E-01 -4.335880E-01
 C  1.671206E-01  4.010493E-01  9.006832E-01

 ANGLES BETWEEN PRINCIPAL AXES AND ORIGINAL AXES (DEGREES)
         X             Y             Z
 A     25.968991    115.912824     88.408618
 B     66.125227     36.379981    115.695481
 C     80.379552     66.356210     25.751987


 POINT   ATOM  MASS NO  NUCLEAR G FACTOR
   33   33 O      17      -0.7575220

 TENSOR IN ORIGINAL CARTESIAN AXES
 XX -7.349083E-03 YY -7.674380E-03 ZZ  1.502346E-02 XY -2.949132E-04 XZ -5.864197E-03 YZ -1.042036E-02

 TENSOR IN PRINCIPAL AXIS SYSTEM
 AA -7.175204E-03 BB -1.295785E-02 CC  2.013305E-02

 PRINCIPAL AXES
         X             Y             Z
 A  8.705093E-01 -4.921508E-01 -1.060889E-03
 B  4.529252E-01  8.002806E-01  3.929500E-01
 C -1.925416E-01 -3.425471E-01  9.195592E-01

 ANGLES BETWEEN PRINCIPAL AXES AND ORIGINAL AXES (DEGREES)
         X             Y             Z
 A     29.482119    119.482044     90.060784
 B     63.068483     36.843092     66.861818
 C    101.101149    110.032136     23.138271


 POINT   ATOM  MASS NO  NUCLEAR G FACTOR
   34   34 O      17      -0.7575220

 TENSOR IN ORIGINAL CARTESIAN AXES
 XX -2.188046E-03 YY  1.503915E-03 ZZ  6.841311E-04 XY  1.199528E-03 XZ  1.601361E-03 YZ -7.934334E-04

 TENSOR IN PRINCIPAL AXIS SYSTEM
 AA -3.321137E-03 BB  2.005483E-03 CC  1.315654E-03

 PRINCIPAL AXES
         X             Y             Z
 A  8.700431E-01 -2.827070E-01 -4.038586E-01
 B  9.507357E-02  9.000715E-01 -4.252439E-01
 C  4.837210E-01  3.315842E-01  8.099790E-01

 ANGLES BETWEEN PRINCIPAL AXES AND ORIGINAL AXES (DEGREES)
         X             Y             Z
 A     29.536349    106.421832    113.819618
 B     84.544446     25.832537    115.166102
 C     61.071292     70.635039     35.906125


 POINT   ATOM  MASS NO  NUCLEAR G FACTOR
   35   35 O      17      -0.7575220

 TENSOR IN ORIGINAL CARTESIAN AXES
 XX  5.178289E-04 YY -5.597155E-03 ZZ  5.079326E-03 XY  4.292196E-03 XZ  1.348191E-03 YZ -6.157652E-03

 TENSOR IN PRINCIPAL AXIS SYSTEM
 AA  2.320098E-03 BB -1.026049E-02 CC  7.940392E-03

 PRINCIPAL AXES
         X             Y             Z
 A  9.193550E-01  3.098992E-01  2.423816E-01
 B -3.831681E-01  8.450619E-01  3.728976E-01
 C -8.926671E-02 -4.356982E-01  8.956554E-01

 ANGLES BETWEEN PRINCIPAL AXES AND ORIGINAL AXES (DEGREES)
         X             Y             Z
 A     23.168029     71.946841     75.972856
 B    112.530062     32.321436     68.105567
 C     95.121423    115.829729     26.407265


 POINT   ATOM  MASS NO  NUCLEAR G FACTOR
   36   36 O      17      -0.7575220

 TENSOR IN ORIGINAL CARTESIAN AXES
 XX -3.168915E-03 YY  2.542370E-04 ZZ  2.914678E-03 XY  5.311466E-04 XZ -9.900460E-05 YZ  3.052910E-03

 TENSOR IN PRINCIPAL AXIS SYSTEM
 AA -3.330962E-03 BB -1.589008E-03 CC  4.919970E-03

 PRINCIPAL AXES
         X             Y             Z
 A  9.536621E-01 -2.640745E-01  1.441986E-01
 B  2.997668E-01  7.927275E-01 -5.307758E-01
 C  2.585416E-02  5.494068E-01  8.351549E-01

 ANGLES BETWEEN PRINCIPAL AXES AND ORIGINAL AXES (DEGREES)
         X             Y             Z
 A     17.510448    105.311968     81.709124
 B     72.556400     37.558866    122.057890
 C     88.518501     56.673676     33.368025


 POINT   ATOM  MASS NO  NUCLEAR G FACTOR
   37   37 O      17      -0.7575220

 TENSOR IN ORIGINAL CARTESIAN AXES
 XX -1.200357E-03 YY  5.703974E-04 ZZ  6.299599E-04 XY -1.609714E-03 XZ  1.603291E-03 YZ  3.460644E-04

 TENSOR IN PRINCIPAL AXIS SYSTEM
 AA -2.858732E-03 BB  1.912843E-03 CC  9.458887E-04

 PRINCIPAL AXES
         X             Y             Z
 A  8.077034E-01  4.208285E-01 -4.129391E-01
 B -5.893281E-01  5.554171E-01 -5.866892E-01
 C -1.754213E-02  7.172274E-01  6.966183E-01

 ANGLES BETWEEN PRINCIPAL AXES AND ORIGINAL AXES (DEGREES)
         X             Y             Z
 A     36.127853     65.113096    114.389596
 B    126.109339     56.260551    125.922417
 C     91.005141     44.173955     45.843684


 POINT   ATOM  MASS NO  NUCLEAR G FACTOR
   38   38 O      17      -0.7575220

 TENSOR IN ORIGINAL CARTESIAN AXES
 XX  1.264083E-01 YY  1.070517E-01 ZZ -2.334600E-01 XY  4.684057E-02 XZ -1.140925E-01 YZ  1.456514E-01

 TENSOR IN PRINCIPAL AXIS SYSTEM
 AA  1.648572E-01 BB  1.563462E-01 CC -3.212034E-01

 PRINCIPAL AXES
         X             Y             Z
 A  6.615672E-01  7.452755E-01  8.302576E-02
 B -7.013116E-01  5.757096E-01  4.203815E-01
 C  2.655013E-01 -3.363375E-01  9.035409E-01

 ANGLES BETWEEN PRINCIPAL AXES AND ORIGINAL AXES (DEGREES)
         X             Y             Z
 A     48.580495     41.817232     85.237492
 B    134.532326     54.850662     65.141325
 C     74.603258    109.653892     25.372524


 POINT   ATOM  MASS NO  NUCLEAR G FACTOR
   39   39 O      17      -0.7575220

 TENSOR IN ORIGINAL CARTESIAN AXES
 XX -7.550892E-04 YY -2.495798E-04 ZZ  1.004669E-03 XY  1.038010E-04 XZ -1.008830E-03 YZ -2.405664E-03

 TENSOR IN PRINCIPAL AXIS SYSTEM
 AA -7.501028E-04 BB -2.310958E-03 CC  3.061061E-03

 PRINCIPAL AXES
         X             Y             Z
 A  9.084117E-01 -4.154002E-01 -4.723158E-02
 B  3.534560E-01  7.027479E-01  6.174255E-01
 C -2.232868E-01 -5.775708E-01  7.852101E-01

 ANGLES BETWEEN PRINCIPAL AXES AND ORIGINAL AXES (DEGREES)
         X             Y             Z
 A     24.713224    114.544523     92.707177
 B     69.301151     45.352113     51.871629
 C    102.902155    125.279867     38.259882


 POINT   ATOM  MASS NO  NUCLEAR G FACTOR
   40   40 O      17      -0.7575220

 TENSOR IN ORIGINAL CARTESIAN AXES
 XX  3.657881E-03 YY  5.955196E-04 ZZ -4.253400E-03 XY -2.257194E-04 XZ -4.840905E-03 YZ  8.751968E-03

 TENSOR IN PRINCIPAL AXIS SYSTEM
 AA  9.231762E-03 BB  2.600508E-03 CC -1.183227E-02

 PRINCIPAL AXES
         X             Y             Z
 A  5.342233E-01 -6.085609E-01 -5.867360E-01
 B  8.103954E-01  5.661943E-01  1.506101E-01
 C  2.405511E-01 -5.559475E-01  7.956491E-01

 ANGLES BETWEEN PRINCIPAL AXES AND ORIGINAL AXES (DEGREES)
         X             Y             Z
 A     57.708748    127.485519    125.925724
 B     35.865424     55.514734     81.337715
 C     76.080929    123.776004     37.283392


 POINT   ATOM  MASS NO  NUCLEAR G FACTOR
   41   41 O      17      -0.7575220

 TENSOR IN ORIGINAL CARTESIAN AXES
 XX  7.793040E-02 YY -8.141289E-02 ZZ  3.482493E-03 XY -2.973047E-02 XZ  1.288798E-01 YZ -3.481698E-02

 TENSOR IN PRINCIPAL AXIS SYSTEM
 AA  1.824333E-01 BB -8.114872E-02 CC -1.012846E-01

 PRINCIPAL AXES
         X             Y             Z
 A  7.843196E-01 -1.672101E-01  5.973972E-01
 B  4.822992E-01  7.700194E-01 -4.176813E-01
 C -3.901669E-01  6.157198E-01  6.845867E-01

 ANGLES BETWEEN PRINCIPAL AXES AND ORIGINAL AXES (DEGREES)
         X             Y             Z
 A     38.342202     99.625650     53.316285
 B     61.164329     39.644369    114.688283
 C    112.964886     51.995758     46.796892


 POINT   ATOM  MASS NO  NUCLEAR G FACTOR
   42   42 O      17      -0.7575220

 TENSOR IN ORIGINAL CARTESIAN AXES
 XX  2.481174E-03 YY  4.322615E-03 ZZ -6.803789E-03 XY -2.661330E-03 XZ  8.020684E-03 YZ  6.213881E-03

 TENSOR IN PRINCIPAL AXIS SYSTEM
 AA  7.717918E-03 BB  6.186840E-03 CC -1.390476E-02

 PRINCIPAL AXES
         X             Y             Z
 A  5.683318E-01  5.948662E-01  5.684481E-01
 B -6.840660E-01  7.255216E-01 -7.531354E-02
 C -4.572229E-01 -3.460529E-01  8.192647E-01

 ANGLES BETWEEN PRINCIPAL AXES AND ORIGINAL AXES (DEGREES)
         X             Y             Z
 A     55.366024     53.496909     55.357920
 B    133.162195     43.487742     94.319238
 C    117.208050    110.246084     34.988748


 POINT   ATOM  MASS NO  NUCLEAR G FACTOR
   43   43 O      17      -0.7575220

 TENSOR IN ORIGINAL CARTESIAN AXES
 XX -7.308165E-04 YY  4.329165E-03 ZZ -3.598348E-03 XY -9.802836E-03 XZ -1.371282E-02 YZ -1.239422E-02

 TENSOR IN PRINCIPAL AXIS SYSTEM
 AA -2.456686E-02 BB  1.117997E-02 CC  1.338689E-02

 PRINCIPAL AXES
         X             Y             Z
 A  5.773808E-01  4.793664E-01  6.609382E-01
 B -8.147858E-01  3.903327E-01  4.286776E-01
 C -5.249216E-02 -7.860333E-01  6.159515E-01

 ANGLES BETWEEN PRINCIPAL AXES AND ORIGINAL AXES (DEGREES)
         X             Y             Z
 A     54.733467     61.355974     48.628536
 B    144.566192     67.024800     64.616336
 C     93.008962    141.816345     51.978908


 POINT   ATOM  MASS NO  NUCLEAR G FACTOR
   44   44 O      17      -0.7575220

 TENSOR IN ORIGINAL CARTESIAN AXES
 XX  3.131254E-03 YY  5.960487E-02 ZZ -6.273612E-02 XY  1.087019E-01 XZ  2.541140E-02 YZ  2.927519E-02

 TENSOR IN PRINCIPAL AXIS SYSTEM
 AA -8.134295E-02 BB  1.506967E-01 CC -6.935374E-02

 PRINCIPAL AXES
         X             Y             Z
 A  7.966442E-01 -5.769561E-01 -1.802213E-01
 B  6.033071E-01  7.772886E-01  1.784456E-01
 C  3.712869E-02 -2.508865E-01  9.673042E-01

 ANGLES BETWEEN PRINCIPAL AXES AND ORIGINAL AXES (DEGREES)
         X             Y             Z
 A     37.189171    125.236734    100.382651
 B     52.892876     38.987007     79.720765
 C     87.872194    104.529975     14.691766


 POINT   ATOM  MASS NO  NUCLEAR G FACTOR
   45   45 O      17      -0.7575220

 TENSOR IN ORIGINAL CARTESIAN AXES
 XX  3.129615E-04 YY  1.592693E-03 ZZ -1.905655E-03 XY -2.238688E-03 XZ  6.231098E-03 YZ  6.070950E-03

 TENSOR IN PRINCIPAL AXIS SYSTEM
 AA  7.145637E-03 BB  3.174975E-03 CC -1.032061E-02

 PRINCIPAL AXES
         X             Y             Z
 A  4.396429E-01  5.761056E-01  6.890693E-01
 B -7.333317E-01  6.732067E-01 -9.496008E-02
 C -5.185931E-01 -4.635678E-01  7.184470E-01

 ANGLES BETWEEN PRINCIPAL AXES AND ORIGINAL AXES (DEGREES)
         X             Y             Z
 A     63.918900     54.822905     46.443522
 B    137.166432     47.684956     95.449022
 C    121.237925    117.617571     44.073587


 POINT   ATOM  MASS NO  NUCLEAR G FACTOR
   46   46 O      17      -0.7575220

 TENSOR IN ORIGINAL CARTESIAN AXES
 XX  9.031092E-03 YY -5.064945E-02 ZZ  4.161836E-02 XY -1.427216E-01 XZ -9.344310E-02 YZ -1.138528E-01

 TENSOR IN PRINCIPAL AXIS SYSTEM
 AA  1.250564E-01 BB -2.428715E-01 CC  1.178151E-01

 PRINCIPAL AXES
         X             Y             Z
 A  7.983466E-01 -5.969182E-01 -7.957028E-02
 B  5.607125E-01  6.886361E-01  4.597627E-01
 C -2.196458E-01 -4.116661E-01  8.844698E-01

 ANGLES BETWEEN PRINCIPAL AXES AND ORIGINAL AXES (DEGREES)
         X             Y             Z
 A     37.027499    126.649496     94.563866
 B     55.894915     46.477755     62.628202
 C    102.688228    114.309537     27.813656


 POINT   ATOM  MASS NO  NUCLEAR G FACTOR
   47   47 O      17      -0.7575220

 TENSOR IN ORIGINAL CARTESIAN AXES
 XX  1.529225E-01 YY -3.371640E-01 ZZ  1.842414E-01 XY -1.421738E-01 XZ  1.534704E-02 YZ  7.929078E-02

 TENSOR IN PRINCIPAL AXIS SYSTEM
 AA  1.872541E-01 BB -3.867870E-01 CC  1.995329E-01

 PRINCIPAL AXES
         X             Y             Z
 A  8.172015E-01 -1.369006E-01  5.598571E-01
 B  2.559510E-01  9.565421E-01 -1.397007E-01
 C -5.164017E-01  2.574596E-01  8.167275E-01

 ANGLES BETWEEN PRINCIPAL AXES AND ORIGINAL AXES (DEGREES)
         X             Y             Z
 A     35.194373     97.868535     55.954087
 B     75.170054     16.953427     98.030527
 C    121.091195     75.080622     35.241468


 POINT   ATOM  MASS NO  NUCLEAR G FACTOR
   48   48 O      17      -0.7575220

 TENSOR IN ORIGINAL CARTESIAN AXES
 XX  2.033315E-02 YY -4.089732E-02 ZZ  2.056417E-02 XY -6.070018E-03 XZ  2.140988E-03 YZ  1.378491E-02

 TENSOR IN PRINCIPAL AXIS SYSTEM
 AA  2.072158E-02 BB -4.447634E-02 CC  2.375477E-02

 PRINCIPAL AXES
         X             Y             Z
 A  9.549055E-01 -1.512277E-01 -2.555107E-01
 B  9.803939E-02  9.728971E-01 -2.094264E-01
 C  2.802567E-01  1.749323E-01  9.438511E-01

 ANGLES BETWEEN PRINCIPAL AXES AND ORIGINAL AXES (DEGREES)
         X             Y             Z
 A     17.272107     98.698083    104.803851
 B     84.373719     13.369985    102.088740
 C     73.724471     79.925282     19.291309


 POINT   ATOM  MASS NO  NUCLEAR G FACTOR
   49   49 O      17      -0.7575220

 TENSOR IN ORIGINAL CARTESIAN AXES
 XX -6.490726E-02 YY -1.898169E-02 ZZ  8.388895E-02 XY  1.454782E-01 XZ -6.553668E-02 YZ  6.315478E-02

 TENSOR IN PRINCIPAL AXIS SYSTEM
 AA -2.166924E-01 BB  1.023376E-01 CC  1.143549E-01

 PRINCIPAL AXES
         X             Y             Z
 A  7.245184E-01 -6.255547E-01  2.894035E-01
 B  6.756844E-01  5.617019E-01 -4.774323E-01
 C  1.361015E-01  5.414539E-01  8.296409E-01

 ANGLES BETWEEN PRINCIPAL AXES AND ORIGINAL AXES (DEGREES)
         X             Y             Z
 A     43.571200    128.722912     73.177751
 B     47.492677     55.826425    118.517833
 C     82.177681     57.217332     33.938131


 POINT   ATOM  MASS NO  NUCLEAR G FACTOR
   50   50 O      17      -0.7575220

 TENSOR IN ORIGINAL CARTESIAN AXES
 XX  6.729519E-03 YY -1.741673E-03 ZZ -4.987846E-03 XY -5.158980E-03 XZ -2.620100E-03 YZ -2.050844E-03

 TENSOR IN PRINCIPAL AXIS SYSTEM
 AA  9.331802E-03 BB -1.670356E-03 CC -7.661446E-03

 PRINCIPAL AXES
         X             Y             Z
 A  9.086434E-01 -4.032287E-01 -1.085067E-01
 B  2.453966E-01  7.258877E-01 -6.425477E-01
 C  3.378573E-01  5.572196E-01  7.585241E-01

 ANGLES BETWEEN PRINCIPAL AXES AND ORIGINAL AXES (DEGREES)
         X             Y             Z
 A     24.681446    113.780177     96.229239
 B     75.794725     43.457257    129.982059
 C     70.253615     56.136269     40.665746


 POINT   ATOM  MASS NO  NUCLEAR G FACTOR
   51   51 O      17      -0.7575220

 TENSOR IN ORIGINAL CARTESIAN AXES
 XX -7.782198E-03 YY  4.708564E-03 ZZ  3.073634E-03 XY -2.949687E-03 XZ  2.446275E-03 YZ  3.512288E-04

 TENSOR IN PRINCIPAL AXIS SYSTEM
 AA -8.948772E-03 BB  5.389857E-03 CC  3.558915E-03

 PRINCIPAL AXES
         X             Y             Z
 A  9.564740E-01  2.117417E-01 -2.008058E-01
 B -2.353913E-01  9.665287E-01 -1.020451E-01
 C  1.724773E-01  1.448714E-01  9.743017E-01

 ANGLES BETWEEN PRINCIPAL AXES AND ORIGINAL AXES (DEGREES)
         X             Y             Z
 A     16.966804     77.775559    101.584081
 B    103.614691     14.865955     95.856948
 C     80.068113     81.670167     13.017395


 POINT   ATOM  MASS NO  NUCLEAR G FACTOR
   52   52 O      17      -0.7575220

 TENSOR IN ORIGINAL CARTESIAN AXES
 XX -7.434851E-04 YY  9.092043E-03 ZZ -8.348558E-03 XY  1.187939E-02 XZ -6.035728E-03 YZ -2.511467E-03

 TENSOR IN PRINCIPAL AXIS SYSTEM
 AA -1.265232E-02 BB  1.816908E-02 CC -5.516752E-03

 PRINCIPAL AXES
         X             Y             Z
 A  6.299482E-01 -2.596123E-01  7.319609E-01
 B  5.666342E-01  7.981717E-01 -2.045670E-01
 C -5.311224E-01  5.436206E-01  6.499120E-01

 ANGLES BETWEEN PRINCIPAL AXES AND ORIGINAL AXES (DEGREES)
         X             Y             Z
 A     50.953697    105.047057     42.948967
 B     55.484153     37.044133    101.804151
 C    122.081320     57.069548     49.465030


 POINT   ATOM  MASS NO  NUCLEAR G FACTOR
   53   53 O      17      -0.7575220

 TENSOR IN ORIGINAL CARTESIAN AXES
 XX -1.363063E-02 YY -1.178605E-02 ZZ  2.541668E-02 XY -2.803152E-03 XZ -8.916926E-03 YZ  8.346580E-03

 TENSOR IN PRINCIPAL AXIS SYSTEM
 AA -1.595780E-02 BB -1.326734E-02 CC  2.922514E-02

 PRINCIPAL AXES
         X             Y             Z
 A  9.202132E-01  3.714613E-01  1.233862E-01
 B -3.288490E-01  9.046656E-01 -2.709954E-01
 C -2.122876E-01  2.087981E-01  9.546399E-01

 ANGLES BETWEEN PRINCIPAL AXES AND ORIGINAL AXES (DEGREES)
         X             Y             Z
 A     23.042731     68.194231     82.912428
 B    109.198929     25.221717    105.723505
 C    102.256443     77.948075     17.323277


 POINT   ATOM  MASS NO  NUCLEAR G FACTOR
   54   54 O      17      -0.7575220

 TENSOR IN ORIGINAL CARTESIAN AXES
 XX -1.042857E-03 YY -6.760535E-04 ZZ  1.718910E-03 XY -2.820494E-04 XZ  4.782966E-04 YZ  3.853685E-04

 TENSOR IN PRINCIPAL AXIS SYSTEM
 AA -1.316753E-03 BB -5.274034E-04 CC  1.844157E-03

 PRINCIPAL AXES
         X             Y             Z
 A  8.485267E-01  4.914804E-01 -1.960851E-01
 B -5.076477E-01  8.606560E-01 -3.955970E-02
 C  1.493190E-01  1.331096E-01  9.797886E-01

 ANGLES BETWEEN PRINCIPAL AXES AND ORIGINAL AXES (DEGREES)
         X             Y             Z
 A     31.948213     60.562067    101.308121
 B    120.507273     30.609678     92.267196
 C     81.412535     82.350677     11.539056


 POINT   ATOM  MASS NO  NUCLEAR G FACTOR
   55   55 O      17      -0.7575220

 TENSOR IN ORIGINAL CARTESIAN AXES
 XX -1.062439E-03 YY -5.740669E-04 ZZ  1.636506E-03 XY -8.406898E-04 XZ -2.084759E-03 YZ -4.308983E-03

 TENSOR IN PRINCIPAL AXIS SYSTEM
 AA -2.716810E-04 BB -4.927083E-03 CC  5.198764E-03

 PRINCIPAL AXES
         X             Y             Z
 A  8.670226E-01 -4.794884E-01 -1.355086E-01
 B  4.606740E-01  6.677584E-01  5.847036E-01
 C -1.898716E-01 -5.693765E-01  7.998495E-01

 ANGLES BETWEEN PRINCIPAL AXES AND ORIGINAL AXES (DEGREES)
         X             Y             Z
 A     29.885527    118.651995     97.788033
 B     62.569392     48.105711     54.217950
 C    100.945288    124.706761     36.884271


 POINT   ATOM  MASS NO  NUCLEAR G FACTOR
   56   56 O      17      -0.7575220

 TENSOR IN ORIGINAL CARTESIAN AXES
 XX -1.197446E-03 YY  5.252735E-04 ZZ  6.721724E-04 XY  7.913441E-04 XZ  1.729674E-03 YZ -1.331281E-03

 TENSOR IN PRINCIPAL AXIS SYSTEM
 AA -2.806111E-03 BB  6.511159E-04 CC  2.154995E-03

 PRINCIPAL AXES
         X             Y             Z
 A  7.564778E-01 -3.896153E-01 -5.253010E-01
 B  5.842836E-01  7.634853E-01  2.751414E-01
 C  2.938603E-01 -5.150632E-01  8.052056E-01

 ANGLES BETWEEN PRINCIPAL AXES AND ORIGINAL AXES (DEGREES)
         X             Y             Z
 A     40.845331    112.930564    121.688512
 B     54.247602     40.227572     74.029559
 C     72.910789    121.001678     36.369886


 POINT   ATOM  MASS NO  NUCLEAR G FACTOR
   57   57 SI     29      -1.1106000

 TENSOR IN ORIGINAL CARTESIAN AXES
 XX  6.609861E-02 YY  1.422258E-01 ZZ -2.083244E-01 XY  4.771230E-01 XZ  3.337474E-01 YZ  3.291348E-01

 TENSOR IN PRINCIPAL AXIS SYSTEM
 AA -3.677366E-01 BB  8.002601E-01 CC -4.325235E-01

 PRINCIPAL AXES
         X             Y             Z
 A  5.977263E-01 -7.470325E-01  2.909736E-01
 B  6.210414E-01  6.609788E-01  4.212062E-01
 C -5.069821E-01 -7.105939E-02  8.590225E-01

 ANGLES BETWEEN PRINCIPAL AXES AND ORIGINAL AXES (DEGREES)
         X             Y             Z
 A     53.292769    138.333976     73.083747
 B     51.607779     48.625436     65.089238
 C    120.463017     94.074837     30.792990


 POINT   ATOM  MASS NO  NUCLEAR G FACTOR
   58   58 SI     29      -1.1106000

 TENSOR IN ORIGINAL CARTESIAN AXES
 XX  1.666525E-01 YY  1.019398E-01 ZZ -2.685923E-01 XY -3.317668E-01 XZ -4.864029E-01 YZ -5.556640E-01

 TENSOR IN PRINCIPAL AXIS SYSTEM
 AA  4.656371E-01 BB  5.074242E-01 CC -9.730613E-01

 PRINCIPAL AXES
         X             Y             Z
 A  8.330932E-01 -5.327712E-01 -1.486962E-01
 B  3.088198E-01  6.710293E-01 -6.740549E-01
 C  4.588966E-01  5.156302E-01  7.235602E-01

 ANGLES BETWEEN PRINCIPAL AXES AND ORIGINAL AXES (DEGREES)
         X             Y             Z
 A     33.582193    122.192887     98.551378
 B     72.011878     47.853445    132.380801
 C     62.684072     58.960411     43.650792


 POINT   ATOM  MASS NO  NUCLEAR G FACTOR
   59   59 SI     29      -1.1106000

 TENSOR IN ORIGINAL CARTESIAN AXES
 XX -1.381402E-03 YY -1.110002E-02 ZZ  1.248143E-02 XY  5.362893E-02 XZ  8.750804E-02 YZ -5.026972E-02

 TENSOR IN PRINCIPAL AXIS SYSTEM
 AA  9.333594E-02 BB -1.283228E-01 CC  3.498690E-02

 PRINCIPAL AXES
         X             Y             Z
 A  6.763853E-01 -7.185996E-03  7.365129E-01
 B -6.214135E-01  5.312476E-01  5.758657E-01
 C -3.954089E-01 -8.471861E-01  3.548626E-01

 ANGLES BETWEEN PRINCIPAL AXES AND ORIGINAL AXES (DEGREES)
         X             Y             Z
 A     47.438178     90.411731     42.564791
 B    128.419427     57.910210     54.839722
 C    113.291478    147.906923     69.214975


 POINT   ATOM  MASS NO  NUCLEAR G FACTOR
   60   60 SI     29      -1.1106000

 TENSOR IN ORIGINAL CARTESIAN AXES
 XX -1.674374E-02 YY  2.906960E-03 ZZ  1.383678E-02 XY  4.201335E-02 XZ -5.823282E-02 YZ  7.778858E-02

 TENSOR IN PRINCIPAL AXIS SYSTEM
 AA -1.187202E-01 BB  2.975418E-02 CC  8.896603E-02

 PRINCIPAL AXES
         X             Y             Z
 A  5.715007E-01 -5.730637E-01  5.873542E-01
 B  7.998010E-01  5.491228E-01 -2.424508E-01
 C -1.835899E-01  6.083273E-01  7.721610E-01

 ANGLES BETWEEN PRINCIPAL AXES AND ORIGINAL AXES (DEGREES)
         X             Y             Z
 A     55.145060    124.964143     54.030520
 B     36.888892     56.693143    104.031233
 C    100.578931     52.531345     39.451656


 POINT   ATOM  MASS NO  NUCLEAR G FACTOR
   61   61 SI     29      -1.1106000

 TENSOR IN ORIGINAL CARTESIAN AXES
 XX  3.336258E-03 YY  7.169180E-04 ZZ -4.053176E-03 XY  3.013822E-02 XZ  2.878047E-02 YZ  2.365156E-02

 TENSOR IN PRINCIPAL AXIS SYSTEM
 AA  5.542723E-02 BB -3.014810E-02 CC -2.527913E-02

 PRINCIPAL AXES
         X             Y             Z
 A  6.246471E-01  5.733134E-01  5.302148E-01
 B -7.684153E-01  3.302983E-01  5.481250E-01
 C  1.391184E-01 -7.498098E-01  6.468627E-01

 ANGLES BETWEEN PRINCIPAL AXES AND ORIGINAL AXES (DEGREES)
         X             Y             Z
 A     51.343709     55.018393     57.980034
 B    140.211795     70.713121     56.761525
 C     82.003163    138.573906     49.694525


 POINT   ATOM  MASS NO  NUCLEAR G FACTOR
   62   62 SI     29      -1.1106000

 TENSOR IN ORIGINAL CARTESIAN AXES
 XX -1.227349E-02 YY  1.157398E-02 ZZ  6.995105E-04 XY  2.070270E-02 XZ  1.033968E-02 YZ  3.108368E-02

 TENSOR IN PRINCIPAL AXIS SYSTEM
 AA -2.872470E-02 BB  4.638448E-02 CC -1.765977E-02

 PRINCIPAL AXES
         X             Y             Z
 A  5.139937E-01 -6.736576E-01  5.310329E-01
 B  3.602036E-01  7.313462E-01  5.791253E-01
 C -7.785011E-01 -1.063868E-01  6.185612E-01

 ANGLES BETWEEN PRINCIPAL AXES AND ORIGINAL AXES (DEGREES)
         X             Y             Z
 A     59.069786    132.349992     57.924730
 B     68.887300     43.000629     54.610957
 C    141.123537     96.107070     51.788858


 POINT   ATOM  MASS NO  NUCLEAR G FACTOR
   63   63 SI     29      -1.1106000

 TENSOR IN ORIGINAL CARTESIAN AXES
 XX -1.965256E-03 YY  4.388703E-03 ZZ -2.423446E-03 XY -6.558505E-03 XZ  1.767503E-03 YZ  1.928884E-03

 TENSOR IN PRINCIPAL AXIS SYSTEM
 AA -7.369670E-03 BB  8.545147E-03 CC -1.175477E-03

 PRINCIPAL AXES
         X             Y             Z
 A  7.431246E-01  4.893624E-01 -4.563882E-01
 B -5.202384E-01  8.514745E-01  6.590372E-02
 C  4.208537E-01  1.884559E-01  8.873368E-01

 ANGLES BETWEEN PRINCIPAL AXES AND ORIGINAL AXES (DEGREES)
         X             Y             Z
 A     42.001728     60.701314    117.154286
 B    121.348241     31.627597     86.221256
 C     65.111505     79.137311     27.459529


 POINT   ATOM  MASS NO  NUCLEAR G FACTOR
   64   64 SI     29      -1.1106000

 TENSOR IN ORIGINAL CARTESIAN AXES
 XX  3.953494E-04 YY -8.093901E-03 ZZ  7.698552E-03 XY -3.071998E-02 XZ -9.302005E-03 YZ  9.436124E-03

 TENSOR IN PRINCIPAL AXIS SYSTEM
 AA  3.384307E-02 BB -3.488643E-02 CC  1.043366E-03

 PRINCIPAL AXES
         X             Y             Z
 A  6.684831E-01 -5.912103E-01 -4.512214E-01
 B  6.526678E-01  7.572242E-01 -2.522350E-02
 C  3.565882E-01 -2.776362E-01  8.920555E-01

 ANGLES BETWEEN PRINCIPAL AXES AND ORIGINAL AXES (DEGREES)
         X             Y             Z
 A     48.049906    126.242942    116.822078
 B     49.256954     40.779902     91.445353
 C     69.109187    106.119178     26.867315


 POINT   ATOM  MASS NO  NUCLEAR G FACTOR
   65   65 SI     29      -1.1106000

 TENSOR IN ORIGINAL CARTESIAN AXES
 XX  1.483432E-02 YY  2.588584E-02 ZZ -4.072016E-02 XY  6.315644E-02 XZ  1.159755E-02 YZ  5.270283E-03

 TENSOR IN PRINCIPAL AXIS SYSTEM
 AA -4.743283E-02 BB  8.485350E-02 CC -3.742067E-02

 PRINCIPAL AXES
         X             Y             Z
 A  5.921329E-01 -4.626329E-01 -6.598101E-01
 B  6.753289E-01  7.316199E-01  9.307687E-02
 C  4.396698E-01 -5.007027E-01  7.456455E-01

 ANGLES BETWEEN PRINCIPAL AXES AND ORIGINAL AXES (DEGREES)
         X             Y             Z
 A     53.691486    117.557132    131.285394
 B     47.520307     42.977634     84.659358
 C     63.917186    120.046502     41.785424


 POINT   ATOM  MASS NO  NUCLEAR G FACTOR
   66   66 SI     29      -1.1106000

 TENSOR IN ORIGINAL CARTESIAN AXES
 XX -1.430579E-03 YY  4.961825E-03 ZZ -3.531245E-03 XY -1.542173E-02 XZ -1.188388E-02 YZ -1.268210E-02

 TENSOR IN PRINCIPAL AXIS SYSTEM
 AA -2.679933E-02 BB  1.796109E-02 CC  8.838246E-03

 PRINCIPAL AXES
         X             Y             Z
 A  6.020500E-01  5.305777E-01  5.966767E-01
 B -5.388112E-01  8.214565E-01 -1.867933E-01
 C -5.892523E-01 -2.090372E-01  7.804391E-01

 ANGLES BETWEEN PRINCIPAL AXES AND ORIGINAL AXES (DEGREES)
         X             Y             Z
 A     52.983142     57.955504     53.367744
 B    122.602750     34.769141    100.765702
 C    126.103968    102.065938     38.699206


 POINT   ATOM  MASS NO  NUCLEAR G FACTOR
   67   67 SI     29      -1.1106000

 TENSOR IN ORIGINAL CARTESIAN AXES
 XX -1.337204E-02 YY -1.380256E-02 ZZ  2.717460E-02 XY -1.801128E-03 XZ  7.986317E-03 YZ  1.738228E-03

 TENSOR IN PRINCIPAL AXIS SYSTEM
 AA -1.652414E-02 BB -1.221113E-02 CC  2.873527E-02

 PRINCIPAL AXES
         X             Y             Z
 A  7.705706E-01  6.155425E-01 -1.653131E-01
 B -6.099413E-01  7.874412E-01  8.892649E-02
 C  1.849124E-01  3.230715E-02  9.822238E-01

 ANGLES BETWEEN PRINCIPAL AXES AND ORIGINAL AXES (DEGREES)
         X             Y             Z
 A     39.594845     52.008652     99.515424
 B    127.585257     38.052969     84.898148
 C     79.343976     88.148615     10.819374


 POINT   ATOM  MASS NO  NUCLEAR G FACTOR
   68   68 SI     29      -1.1106000

 TENSOR IN ORIGINAL CARTESIAN AXES
 XX -1.894505E-02 YY  8.037818E-02 ZZ -6.143313E-02 XY -4.671884E-01 XZ -4.045672E-01 YZ  4.420696E-01

 TENSOR IN PRINCIPAL AXIS SYSTEM
 AA -4.360269E-01 BB  8.813929E-01 CC -4.453660E-01

 PRINCIPAL AXES
         X             Y             Z
 A  4.015035E-01  7.775403E-01 -4.839690E-01
 B -5.659203E-01  6.261042E-01  5.364026E-01
 C  7.200897E-01  5.852034E-02  6.914088E-01

 ANGLES BETWEEN PRINCIPAL AXES AND ORIGINAL AXES (DEGREES)
         X             Y             Z
 A     66.327796     38.964084    118.944948
 B    124.466221     51.236723     57.560915
 C     43.938113     86.645115     46.258265


 POINT   ATOM  MASS NO  NUCLEAR G FACTOR
   69   69 SI     29      -1.1106000

 TENSOR IN ORIGINAL CARTESIAN AXES
 XX  1.328371E-03 YY -8.455942E-04 ZZ -4.827772E-04 XY -1.968231E-03 XZ -3.063140E-03 YZ -5.664820E-03

 TENSOR IN PRINCIPAL AXIS SYSTEM
 AA  2.480566E-03 BB -7.727838E-03 CC  5.247273E-03

 PRINCIPAL AXES
         X             Y             Z
 A  8.872473E-01 -4.596966E-01 -3.835672E-02
 B  3.662983E-01  6.515526E-01  6.643078E-01
 C -2.803886E-01 -6.034553E-01  7.464743E-01

 ANGLES BETWEEN PRINCIPAL AXES AND ORIGINAL AXES (DEGREES)
         X             Y             Z
 A     27.470640    117.367530     92.198217
 B     68.512499     49.341239     48.370757
 C    106.283399    127.117769     41.714111


 POINT   ATOM  MASS NO  NUCLEAR G FACTOR
   70   70 SI     29      -1.1106000

 TENSOR IN ORIGINAL CARTESIAN AXES
 XX  1.067890E-02 YY  1.076714E-02 ZZ -2.144605E-02 XY -3.424103E-02 XZ -3.222066E-02 YZ -2.594950E-02

 TENSOR IN PRINCIPAL AXIS SYSTEM
 AA -6.371768E-02 BB  4.542314E-02 CC  1.829455E-02

 PRINCIPAL AXES
         X             Y             Z
 A  5.258646E-01  4.851408E-01  6.986450E-01
 B -7.451593E-01  6.588238E-01  1.033867E-01
 C -4.101268E-01 -5.749692E-01  7.079593E-01

 ANGLES BETWEEN PRINCIPAL AXES AND ORIGINAL AXES (DEGREES)
         X             Y             Z
 A     58.273537     60.978300     45.681607
 B    138.172788     48.789773     84.065777
 C    114.212802    125.097478     44.930880


 POINT   ATOM  MASS NO  NUCLEAR G FACTOR
   71   71 SI     29      -1.1106000

 TENSOR IN ORIGINAL CARTESIAN AXES
 XX  1.067471E-02 YY -2.749468E-03 ZZ -7.925239E-03 XY -8.373310E-03 XZ -1.975687E-03 YZ -4.835312E-03

 TENSOR IN PRINCIPAL AXIS SYSTEM
 AA  1.469863E-02 BB -2.103571E-03 CC -1.259506E-02

 PRINCIPAL AXES
         X             Y             Z
 A  8.998814E-01 -4.358911E-01  1.457689E-02
 B  3.336172E-01  6.664435E-01 -6.667479E-01
 C  2.809148E-01  6.048571E-01  7.451408E-01

 ANGLES BETWEEN PRINCIPAL AXES AND ORIGINAL AXES (DEGREES)
         X             Y             Z
 A     25.857521    115.842008     89.164776
 B     70.511530     48.206841    131.816557
 C     73.685191     52.781442     41.828807


 POINT   ATOM  MASS NO  NUCLEAR G FACTOR
   72   72 SI     29      -1.1106000

 TENSOR IN ORIGINAL CARTESIAN AXES
 XX -7.301284E-03 YY  5.718249E-03 ZZ  1.583035E-03 XY -3.150112E-02 XZ -8.160289E-03 YZ -3.531467E-03

 TENSOR IN PRINCIPAL AXIS SYSTEM
 AA -3.496660E-02 BB  3.157732E-02 CC  3.389281E-03

 PRINCIPAL AXES
         X             Y             Z
 A  7.600792E-01  6.083397E-01  2.284783E-01
 B -6.378509E-01  7.656319E-01  8.339069E-02
 C -1.242004E-01 -2.091186E-01  9.699710E-01

 ANGLES BETWEEN PRINCIPAL AXES AND ORIGINAL AXES (DEGREES)
         X             Y             Z
 A     40.528817     52.530449     76.792500
 B    129.631755     40.036760     85.216510
 C     97.134582    102.070707     14.076711


 POINT   ATOM  MASS NO  NUCLEAR G FACTOR
   73   73 SI     29      -1.1106000

 TENSOR IN ORIGINAL CARTESIAN AXES
 XX -4.207713E-01 YY -3.161801E-01 ZZ  7.369514E-01 XY  6.340884E-02 XZ  1.994635E-01 YZ  3.968020E-01

 TENSOR IN PRINCIPAL AXIS SYSTEM
 AA -4.553760E-01 BB -4.474346E-01 CC  9.028106E-01

 PRINCIPAL AXES
         X             Y             Z
 A  8.885282E-01  3.697345E-01 -2.716874E-01
 B -4.314248E-01  8.748054E-01 -2.204273E-01
 C  1.561740E-01  3.130686E-01  9.368019E-01

 ANGLES BETWEEN PRINCIPAL AXES AND ORIGINAL AXES (DEGREES)
         X             Y             Z
 A     27.311122     68.300753    105.764701
 B    115.558015     28.978051    102.734134
 C     81.015110     71.755745     20.478773


 POINT   ATOM  MASS NO  NUCLEAR G FACTOR
   74   74 SI     29      -1.1106000

 TENSOR IN ORIGINAL CARTESIAN AXES
 XX -7.730266E-03 YY  2.990462E-02 ZZ -2.217435E-02 XY  3.865678E-02 XZ -3.660583E-02 YZ -4.693134E-02

 TENSOR IN PRINCIPAL AXIS SYSTEM
 AA -3.075066E-02 BB  8.644258E-02 CC -5.569192E-02

 PRINCIPAL AXES
         X             Y             Z
 A  7.586614E-01 -6.252135E-01 -1.831418E-01
 B  4.862510E-01  7.304997E-01 -4.795104E-01
 C  4.335814E-01  2.747331E-01  8.582126E-01

 ANGLES BETWEEN PRINCIPAL AXES AND ORIGINAL AXES (DEGREES)
         X             Y             Z
 A     40.653668    128.697861    100.552816
 B     60.905534     43.071701    118.653431
 C     64.304937     74.053888     30.883520


 POINT   ATOM  MASS NO  NUCLEAR G FACTOR
   75   75 SI     29      -1.1106000

 TENSOR IN ORIGINAL CARTESIAN AXES
 XX  7.046130E-04 YY  1.560113E-02 ZZ -1.630574E-02 XY -1.193104E-02 XZ -1.580284E-02 YZ  1.593701E-02

 TENSOR IN PRINCIPAL AXIS SYSTEM
 AA -4.635208E-03 BB  3.206383E-02 CC -2.742862E-02

 PRINCIPAL AXES
         X             Y             Z
 A  7.654829E-01  6.107715E-01 -2.024700E-01
 B -4.983838E-01  7.618115E-01  4.138318E-01
 C  4.070007E-01 -2.158735E-01  8.875523E-01

 ANGLES BETWEEN PRINCIPAL AXES AND ORIGINAL AXES (DEGREES)
         X             Y             Z
 A     40.050027     52.354692    101.681434
 B    119.893129     40.375839     65.554227
 C     65.983440    102.466776     27.432734


 POINT   ATOM  MASS NO  NUCLEAR G FACTOR
   76   76 SI     29      -1.1106000

 TENSOR IN ORIGINAL CARTESIAN AXES
 XX  7.987948E-03 YY  5.756674E-03 ZZ -1.374462E-02 XY -4.932832E-02 XZ -3.148315E-02 YZ  2.705684E-02

 TENSOR IN PRINCIPAL AXIS SYSTEM
 AA  7.546400E-02 BB -4.305775E-02 CC -3.240625E-02

 PRINCIPAL AXES
         X             Y             Z
 A  6.550806E-01 -6.271319E-01 -4.213966E-01
 B  7.440148E-01  6.325474E-01  2.152343E-01
 C  1.315730E-01 -4.545211E-01  8.809649E-01

 ANGLES BETWEEN PRINCIPAL AXES AND ORIGINAL AXES (DEGREES)
         X             Y             Z
 A     49.074239    128.838832    114.922789
 B     41.925455     50.761685     77.570724
 C     82.439502    117.034125     28.241024


 POINT   ATOM  MASS NO  NUCLEAR G FACTOR
   77   77 SI     29      -1.1106000

 TENSOR IN ORIGINAL CARTESIAN AXES
 XX  7.632487E-03 YY -8.626523E-03 ZZ  9.940358E-04 XY -2.135272E-02 XZ -6.004722E-03 YZ -2.483087E-02

 TENSOR IN PRINCIPAL AXIS SYSTEM
 AA  2.772081E-02 BB -3.833620E-02 CC  1.061539E-02

 PRINCIPAL AXES
         X             Y             Z
 A  5.604171E-01 -6.657680E-01  4.926314E-01
 B  4.131368E-01  7.402477E-01  5.304256E-01
 C -7.178096E-01 -9.373537E-02  6.899007E-01

 ANGLES BETWEEN PRINCIPAL AXES AND ORIGINAL AXES (DEGREES)
         X             Y             Z
 A     55.915354    131.741270     60.486317
 B     65.597961     42.247479     57.965786
 C    135.873934     95.378537     46.377749


 POINT   ATOM  MASS NO  NUCLEAR G FACTOR
   78   78 SI     29      -1.1106000

 TENSOR IN ORIGINAL CARTESIAN AXES
 XX -7.169805E-04 YY  8.161905E-04 ZZ -9.921000E-05 XY  1.954293E-02 XZ  1.379405E-02 YZ  2.581198E-02

 TENSOR IN PRINCIPAL AXIS SYSTEM
 AA -2.644022E-02 BB  3.995476E-02 CC -1.351454E-02

 PRINCIPAL AXES
         X             Y             Z
 A  2.454499E-01 -7.535361E-01  6.098670E-01
 B  5.038927E-01  6.366176E-01  5.837894E-01
 C -8.281585E-01  1.640165E-01  5.359591E-01

 ANGLES BETWEEN PRINCIPAL AXES AND ORIGINAL AXES (DEGREES)
         X             Y             Z
 A     75.791577    138.897618     52.420114
 B     59.742123     50.459936     54.282484
 C    145.910031     80.559895     57.591023


 POINT   ATOM  MASS NO  NUCLEAR G FACTOR
   79   79 SI     29      -1.1106000

 TENSOR IN ORIGINAL CARTESIAN AXES
 XX -4.116170E-03 YY  1.751862E-03 ZZ  2.364308E-03 XY  2.214276E-02 XZ -1.538722E-02 YZ  1.874596E-02

 TENSOR IN PRINCIPAL AXIS SYSTEM
 AA -3.784965E-02 BB  2.302769E-02 CC  1.482195E-02

 PRINCIPAL AXES
         X             Y             Z
 A  6.221444E-01 -5.909520E-01  5.135291E-01
 B  4.202384E-01  8.054983E-01  4.178183E-01
 C -6.605574E-01 -4.413868E-02  7.494770E-01

 ANGLES BETWEEN PRINCIPAL AXES AND ORIGINAL AXES (DEGREES)
         X             Y             Z
 A     51.527102    126.224594     59.100813
 B     65.150359     36.341594     65.303074
 C    131.342396     92.529782     41.454909


 POINT   ATOM  MASS NO  NUCLEAR G FACTOR
   80   80 SI     29      -1.1106000

 TENSOR IN ORIGINAL CARTESIAN AXES
 XX  6.074360E-04 YY -3.158524E-04 ZZ -2.915835E-04 XY -1.454117E-02 XZ -1.580334E-02 YZ  1.312426E-02

 TENSOR IN PRINCIPAL AXIS SYSTEM
 AA  2.902989E-02 BB -1.322536E-02 CC -1.580454E-02

 PRINCIPAL AXES
         X             Y             Z
 A  6.027202E-01 -5.550441E-01 -5.732839E-01
 B  2.200547E-01  8.062006E-01 -5.491963E-01
 C  7.670100E-01  2.048579E-01  6.080534E-01

 ANGLES BETWEEN PRINCIPAL AXES AND ORIGINAL AXES (DEGREES)
         X             Y             Z
 A     52.935033    123.713750    124.979543
 B     77.287756     36.273641    123.311895
 C     39.913859     78.178819     52.551117


 POINT   ATOM  MASS NO  NUCLEAR G FACTOR
   81   81 SI     29      -1.1106000

 TENSOR IN ORIGINAL CARTESIAN AXES
 XX -9.469260E-03 YY  1.145145E-02 ZZ -1.982186E-03 XY  2.305153E-03 XZ -2.919255E-03 YZ -8.520221E-03

 TENSOR IN PRINCIPAL AXIS SYSTEM
 AA -1.049819E-02 BB  1.602577E-02 CC -5.527578E-03

 PRINCIPAL AXES
         X             Y             Z
 A  9.312239E-01  4.269673E-02  3.619379E-01
 B  1.307959E-01  8.877994E-01 -4.412535E-01
 C -3.401683E-01  4.582458E-01  8.211555E-01

 ANGLES BETWEEN PRINCIPAL AXES AND ORIGINAL AXES (DEGREES)
         X             Y             Z
 A     21.373591     87.552914     68.780743
 B     82.484415     27.401990    116.183888
 C    109.887130     62.726030     34.799372


 POINT   ATOM  MASS NO  NUCLEAR G FACTOR
   82   82 SI     29      -1.1106000

 TENSOR IN ORIGINAL CARTESIAN AXES
 XX -2.879389E-03 YY  5.538664E-03 ZZ -2.659275E-03 XY -6.909909E-03 XZ -5.768259E-03 YZ  6.004213E-03

 TENSOR IN PRINCIPAL AXIS SYSTEM
 AA -8.614425E-03 BB  1.349599E-02 CC -4.881568E-03

 PRINCIPAL AXES
         X             Y             Z
 A  7.644583E-01  1.032687E-01  6.363482E-01
 B -4.771268E-01  7.544366E-01  4.507499E-01
 C -4.335360E-01 -6.481983E-01  6.260076E-01

 ANGLES BETWEEN PRINCIPAL AXES AND ORIGINAL AXES (DEGREES)
         X             Y             Z
 A     40.141174     84.072574     50.479948
 B    118.497917     41.023836     63.208194
 C    115.692176    130.405898     51.243821


 POINT   ATOM  MASS NO  NUCLEAR G FACTOR
   83   83 SI     29      -1.1106000

 TENSOR IN ORIGINAL CARTESIAN AXES
 XX  4.712150E-03 YY -5.437567E-03 ZZ  7.254174E-04 XY -6.520761E-03 XZ  4.662420E-03 YZ -1.898539E-02

 TENSOR IN PRINCIPAL AXIS SYSTEM
 AA  2.068514E-02 BB  1.056828E-03 CC -2.174197E-02

 PRINCIPAL AXES
         X             Y             Z
 A  4.396342E-01 -5.972722E-01  6.708112E-01
 B  8.947911E-01  2.264592E-01 -3.847923E-01
 C  7.791440E-02  7.694038E-01  6.339930E-01

 ANGLES BETWEEN PRINCIPAL AXES AND ORIGINAL AXES (DEGREES)
         X             Y             Z
 A     63.919455    126.674779     47.870292
 B     26.518391     76.911303    112.630850
 C     85.531305     39.699618     50.654663


 POINT   ATOM  MASS NO  NUCLEAR G FACTOR
   84   84 SI     29      -1.1106000

 TENSOR IN ORIGINAL CARTESIAN AXES
 XX -4.869326E-03 YY  2.629741E-03 ZZ  2.239585E-03 XY -8.088255E-03 XZ -7.295577E-03 YZ  9.492782E-03

 TENSOR IN PRINCIPAL AXIS SYSTEM
 AA -1.026802E-02 BB  1.727917E-02 CC -7.011152E-03

 PRINCIPAL AXES
         X             Y             Z
 A  8.908880E-01  3.992259E-01  2.166502E-01
 B -4.411276E-01  6.467399E-01  6.222009E-01
 C  1.082823E-01 -6.498816E-01  7.522824E-01

 ANGLES BETWEEN PRINCIPAL AXES AND ORIGINAL AXES (DEGREES)
         X             Y             Z
 A     27.014957     66.470207     77.487642
 B    116.175847     49.703744     51.522968
 C     83.783690    130.532679     41.211526


[...]
   9    9 O     2.2068    7.3435  -14.3338  -0.26377E-03
  10   10 O    -7.2119    1.3652  -18.0094  -0.86752E-03
  11   11 O    -1.7404   -0.2388  -18.7025  -0.48446E-03
  12   12 O    -8.1385    6.8818  -17.8435  -0.18741E-02
  13   13 O     6.3093   -4.6403  -14.0335  -0.11409E-02
  14   14 O     2.2831   -7.5149  -16.1509  -0.79369E-03
  15   15 O    -0.2629   -3.8284  -14.1593  -0.32018E-03
  16   16 O     4.5564   -4.8305  -19.0482  -0.68952E-02
  17   17 O     1.0259    6.5414   -3.2907  -0.20238E-01
  18   18 O     5.5518    7.6477  -10.5053  -0.87246E-04
  19   19 O     3.3205    9.9007   -6.1995  -0.58353E-03
  20   20 O   -10.2739    4.2632   -7.8714   0.32018E-02
  21   21 O    -7.0586    1.9678   -4.9020   0.18646E-01
  22   22 O    -4.1975    8.8840  -11.0683  -0.11575E-01
  23   23 O     7.8944   -3.7213   -0.8771   0.24384E-01
  24   24 O    -3.4486   -3.3705   -1.6149   0.11866E-01
  25   25 O    -9.4983   -8.4269   -3.0550  -0.11137E-01
  26   26 O     3.9972   -7.9846  -10.6239  -0.10724E-03
  27   27 O    -6.4189   -7.0093  -10.0348  -0.39630E-01
  28   28 O    -9.7405   -2.9398   -4.9573   0.19919E-02
  29   29 O    -0.6295    0.6905  -10.9181  -0.61274E-03
  30   30 O     0.9640   -4.6565   -9.3653   0.30087E-03
  31   31 O    -8.2616   -2.5753   -9.7945  -0.13874E-02
  32   32 O    -3.4086   -2.8882  -10.8384  -0.11231E-02
  33   33 O    -2.0812    2.3600   -3.7352   0.28601E-02
  34   34 O     0.7139    8.4313   -9.7134  -0.11032E-05
  35   35 O    -3.5876    4.0874   -7.8353  -0.32963E-02
  36   36 O     6.9049   -7.1191   -4.1019   0.11884E-02
  37   37 O    -1.2010   -9.2007  -13.4998  -0.99576E-03
  38   38 O    -4.9945   -9.6874   -2.3619  -0.58327E-01
  39   39 O     1.2545    3.4861   -7.2560  -0.74545E-03
  40   40 O    -4.8991    5.7092   -2.3231  -0.17414E-02
  41   41 O     8.4119    2.3442   -3.3771   0.12198E-01
  42   42 O     8.0174   -0.2072  -11.6159  -0.32880E-02
  43   43 O    -9.0857    8.9803  -10.3207  -0.45583E-03
  44   44 O     2.3525    2.0423   -1.9899  -0.13603E-01
  45   45 O     6.6739   -4.2618   -8.5662  -0.67475E-03
  46   46 O     7.6994    8.8038   -1.3005  -0.17060E-01
  47   47 O    -6.8423    7.3933   -6.1196  -0.11251E+00
  48   48 O    -4.4007   -4.3661   -6.3280  -0.13819E-01
  49   49 O    -1.9527    9.5354   -5.8797  -0.12860E+00
  50   50 O    -7.2688   -6.1165    0.3344   0.89246E-02
  51   51 O     8.7450    8.7100   -6.1904   0.10926E-02
  52   52 O     0.7503   -8.9071   -2.1878  -0.31381E-03
  53   53 O     0.6028   -2.9137   -4.6617   0.22194E-02
  54   54 O     3.2958   -1.7468  -11.5300  -0.10108E-03
  55   55 O    -1.6043    5.0826  -12.2096  -0.40135E-02
  56   56 O     4.7587    3.2027  -12.5052  -0.27140E-03
  57   57 SI    1.0456    0.8064    0.5918   0.24418E+00
  58   58 SI    6.1281    6.5034    0.2359  -0.61517E+00
  59   59 SI    3.3019    8.5961    2.9827  -0.51109E-01
  60   60 SI    8.4241    3.6816    2.8904  -0.48775E-01
  61   61 SI    0.7721    5.9990    5.6308   0.47516E-01
  62   62 SI    5.9343    0.9902    5.5564   0.49237E-01
  63   63 SI    3.3732    3.4471    8.3060   0.42485E-02
  64   64 SI    8.4211    8.4698    8.5371   0.33215E-01
  65   65 SI    1.5523   -8.2663    0.7815   0.60211E-01
  66   66 SI    5.5297   -4.9928    0.8723   0.51081E-01
  67   67 SI    3.4534   -1.8717    3.1693   0.52514E-01
  68   68 SI    7.7108   -6.2868    4.3258   0.60180E-01
  69   69 SI    0.6796   -4.1906    5.9178   0.12480E-01
  70   70 SI    5.6044   -9.5689    6.1052  -0.41251E-01
  71   71 SI    3.0769   -6.8983    8.5802   0.44852E-01
  72   72 SI    8.4047   -1.5417    8.3848   0.60947E-01
  73   73 SI   -8.6401    1.9468    0.9065   0.39988E+00
  74   74 SI   -5.2561    5.0017    0.7492   0.38632E-01
  75   75 SI   -6.9588    8.5168    2.9760   0.11160E-01
  76   76 SI   -1.7695    3.3014    3.0437   0.43246E-01
  77   77 SI   -9.6460    6.0732    5.7073   0.24722E-02
  78   78 SI   -4.2561    0.8516    5.8840   0.44754E-01
  79   79 SI   -6.9545    3.4469    8.3090  -0.14088E-01
  80   80 SI   -1.7785    8.4944    8.3976   0.23648E-01
  81   81 SI   -7.4813   -9.0034   -0.6584   0.21884E-01
  82   82 SI   -4.8405   -4.2872    0.9989   0.34714E-01
  83   83 SI   -7.0678   -1.3721    3.3345   0.16371E-01
  84   84 SI   -1.8792   -6.6571    3.2831   0.43192E-02
  85   85 SI   -9.4488   -4.1188    5.9807  -0.12024E-02
  86   86 SI   -4.3910   -9.3743    5.7903   0.39521E-02
  87   87 SI   -6.9679   -6.8609    8.5258   0.11503E-01
  88   88 SI   -1.8209   -1.6775    8.6042   0.18433E-01
  89   89 SI    0.8410    0.9298   11.0388   0.60587E-02
  90   90 SI    5.9061    5.9472   11.1038   0.13043E-02
  91   91 SI    0.5868   -9.4125   11.3449   0.26490E-01
  92   92 SI    5.8394   -4.2733   10.8329  -0.99685E-03
  93   93 SI   -9.4816    0.8623   11.0647   0.34230E-01
  94   94 SI   -4.3593    5.9403   10.9217  -0.59232E-02
  95   95 SI   -9.5517   -9.4272   11.2050  -0.66941E-03
  96   96 SI   -4.4606   -4.2568   11.1475  -0.92290E-03
  97   97 SI    3.3094    8.3444   13.8703  -0.39309E-03
  98   98 SI    8.6113    3.5001   13.6660  -0.28751E-03
  99   99 SI    0.6300    5.9626   16.5778   0.16627E-03
 100  100 SI    6.0996    0.7737   15.9422  -0.10629E-02
 101  101 SI    2.5792    2.0767   18.3023  -0.13832E-02
 102  102 SI    9.2517    9.2564   18.5048   0.66625E-03
 103  103 SI    3.3786   -1.8034   13.5143  -0.10940E-01
 104  104 SI    8.3903   -6.6786   13.5978  -0.41915E-02
 105  105 SI    0.5886   -4.0916   16.2112   0.11729E-02
 106  106 SI    5.8734   -9.2088   16.2546   0.21089E-03
 107  107 SI    2.7890   -6.9962   18.6679  -0.31950E-02
 108  108 SI    8.7403   -1.1865   18.9659  -0.84215E-01
 109  109 SI   -6.8822    8.2604   13.7748   0.24305E-02
 110  110 SI   -1.8116    3.4932   13.6079  -0.49773E-02
 111  111 SI   -9.2964    5.6915   16.6791   0.15389E-02
 112  112 SI   -4.6009    1.2745   16.2554  -0.55575E-02
 113  113 SI   -6.9091    4.1653  -19.5464  -0.12164E-01
 114  114 SI   -1.1755    9.2422   19.2010  -0.32612E-02
 115  115 SI   -7.0068   -1.7267   13.8569   0.60598E-03
 116  116 SI   -2.0612   -6.7977   13.8598   0.70074E-02
 117  117 SI   -9.6966   -4.3217   16.5325  -0.15079E-01
 118  118 SI   -4.4289   -9.5290   16.4855   0.56595E-02
 119  119 SI   -7.9532   -7.8273   18.8840   0.40950E-02
 120  120 SI   -1.0870   -0.4587   18.2359   0.93228E-03
 121  121 SI   -4.0892    3.3222  -14.2193  -0.17615E-01
 122  122 SI    4.7821    6.2223  -13.2169  -0.11603E-03
 123  123 SI    4.8526   -1.1580  -18.9636   0.44153E-02
 124  124 SI   -6.0434   -7.5226  -16.9398   0.78650E-04
 125  125 SI    5.1679   -6.3802  -16.1845  -0.13015E-02
 126  126 SI   -0.5239   -6.7461  -15.1534  -0.22071E-03
 127  127 SI   -5.1855    8.2388  -17.5993   0.14217E-02
 128  128 SI  -10.0182    0.2650  -16.6688  -0.32434E+00
 129  129 SI   -3.8554   -0.7268  -16.4548  -0.13636E-01
 130  130 SI    8.0971    8.7820  -17.2943   0.11101E-02
 131  131 SI   -6.6894   -9.7311  -11.4179   0.26458E-02
 132  132 SI    0.7937    9.3929   -4.4600  -0.28024E-01
 133  133 SI   10.0070   -2.4684  -11.8382  -0.42207E-02
 134  134 SI  -10.0542    2.3612   -5.4025  -0.13047E-01
 135  135 SI    8.9258   -4.7095   -3.6108   0.19600E-02
 136  136 SI   -5.6008   -4.1754   -9.2271   0.13275E-02
 137  137 SI    3.5303    9.6706   -9.3265   0.55422E-04
 138  138 SI   -4.6060    3.8512   -4.8629  -0.34808E-02
 139  139 SI    0.7391    3.5909   -4.1587   0.16698E-02
 140  140 SI   -1.1459    8.4114  -12.1135  -0.28521E-02
 141  141 SI   -1.0272    3.3191   -9.4236  -0.32743E-02
 142  142 SI   -9.5637    7.2814   -7.7925   0.54590E-02
 143  143 SI    8.3389   -9.8417   -3.7730   0.32692E-02
 144  144 SI    5.2398    0.2218  -12.9616  -0.24523E-03
 145  145 SI    4.0984   -4.8696   -9.9577  -0.94284E-04
 146  146 SI   -0.2471   -2.4638  -11.2498  -0.21771E-03
 147  147 SI   -2.2016   -3.5426   -4.3684   0.11007E-02
 148  148 SI   -4.9662    9.9349   -5.3938  -0.13921E+01
 *******************************************************************************
 HYPERFINE COUPLING CONSTANTS (AN)
 *******************************************************************************
 POINT  ATOM  MASS N0    NUCLEAR      AN (MT)       AN (MHZ)    AN (CM**(-1))
                        G FACTOR
   1    1 O      17   -0.7575220    0.20845E+00   0.58419E+01   0.19486E-03
   2    2 O      17   -0.7575220    0.45908E-01   0.12866E+01   0.42915E-04
   3    3 O      17   -0.7575220    0.79323E-01   0.22230E+01   0.74152E-04
   4    4 O      17   -0.7575220    0.69293E-02   0.19419E+00   0.64776E-05
   5    5 O      17   -0.7575220    0.62326E-01   0.17467E+01   0.58263E-04
   6    6 O      17   -0.7575220   -0.27653E-03  -0.77497E-02  -0.25850E-06
   7    7 O      17   -0.7575220    0.15819E-01   0.44332E+00   0.14788E-04
   8    8 O      17   -0.7575220    0.23347E-01   0.65429E+00   0.21825E-04
   9    9 O      17   -0.7575220    0.57055E-02   0.15990E+00   0.53336E-05
  10   10 O      17   -0.7575220    0.18765E-01   0.52589E+00   0.17542E-04
  11   11 O      17   -0.7575220    0.10479E-01   0.29368E+00   0.97960E-05
  12   12 O      17   -0.7575220    0.40538E-01   0.11361E+01   0.37895E-04
  13   13 O      17   -0.7575220    0.24679E-01   0.69164E+00   0.23071E-04
  14   14 O      17   -0.7575220    0.17168E-01   0.48113E+00   0.16049E-04
  15   15 O      17   -0.7575220    0.69257E-02   0.19409E+00   0.64742E-05
  16   16 O      17   -0.7575220    0.14915E+00   0.41798E+01   0.13942E-03
  17   17 O      17   -0.7575220    0.43777E+00   0.12268E+02   0.40923E-03
  18   18 O      17   -0.7575220    0.18872E-02   0.52888E-01   0.17642E-05
  19   19 O      17   -0.7575220    0.12622E-01   0.35373E+00   0.11799E-04
  20   20 O      17   -0.7575220   -0.69256E-01  -0.19409E+01  -0.64741E-04
  21   21 O      17   -0.7575220   -0.40333E+00  -0.11303E+02  -0.37704E-03
  22   22 O      17   -0.7575220    0.25037E+00   0.70167E+01   0.23405E-03
  23   23 O      17   -0.7575220   -0.52744E+00  -0.14782E+02  -0.49306E-03
  24   24 O      17   -0.7575220   -0.25667E+00  -0.71932E+01  -0.23994E-03
  25   25 O      17   -0.7575220    0.24091E+00   0.67515E+01   0.22521E-03
  26   26 O      17   -0.7575220    0.23198E-02   0.65012E-01   0.21686E-05
  27   27 O      17   -0.7575220    0.85721E+00   0.24023E+02   0.80133E-03
  28   28 O      17   -0.7575220   -0.43086E-01  -0.12075E+01  -0.40277E-04
  29   29 O      17   -0.7575220    0.13254E-01   0.37144E+00   0.12390E-04
  30   30 O      17   -0.7575220   -0.65080E-02  -0.18239E+00  -0.60837E-05
  31   31 O      17   -0.7575220    0.30010E-01   0.84104E+00   0.28054E-04
  32   32 O      17   -0.7575220    0.24294E-01   0.68083E+00   0.22710E-04
  33   33 O      17   -0.7575220   -0.61865E-01  -0.17338E+01  -0.57832E-04
  34   34 O      17   -0.7575220    0.23862E-04   0.66873E-03   0.22306E-07
  35   35 O      17   -0.7575220    0.71301E-01   0.19982E+01   0.66653E-04
  36   36 O      17   -0.7575220   -0.25706E-01  -0.72042E+00  -0.24031E-04
  37   37 O      17   -0.7575220    0.21539E-01   0.60363E+00   0.20135E-04
  38   38 O      17   -0.7575220    0.12616E+01   0.35357E+02   0.11794E-02
  39   39 O      17   -0.7575220    0.16124E-01   0.45189E+00   0.15073E-04
  40   40 O      17   -0.7575220    0.37668E-01   0.10556E+01   0.35212E-04
  41   41 O      17   -0.7575220   -0.26384E+00  -0.73942E+01  -0.24664E-03
  42   42 O      17   -0.7575220    0.71122E-01   0.19932E+01   0.66485E-04
  43   43 O      17   -0.7575220    0.98599E-02   0.27632E+00   0.92171E-05
  44   44 O      17   -0.7575220    0.29425E+00   0.82464E+01   0.27507E-03
  45   45 O      17   -0.7575220    0.14595E-01   0.40903E+00   0.13644E-04
  46   46 O      17   -0.7575220    0.36902E+00   0.10342E+02   0.34496E-03
  47   47 O      17   -0.7575220    0.24337E+01   0.68204E+02   0.22750E-02
  48   48 O      17   -0.7575220    0.29891E+00   0.83771E+01   0.27943E-03
  49   49 O      17   -0.7575220    0.27818E+01   0.77958E+02   0.26004E-02
  50   50 O      17   -0.7575220   -0.19305E+00  -0.54101E+01  -0.18046E-03
  51   51 O      17   -0.7575220   -0.23634E-01  -0.66235E+00  -0.22094E-04
  52   52 O      17   -0.7575220    0.67880E-02   0.19023E+00   0.63455E-05
  53   53 O      17   -0.7575220   -0.48006E-01  -0.13454E+01  -0.44877E-04
  54   54 O      17   -0.7575220    0.21864E-02   0.61272E-01   0.20438E-05
  55   55 O      17   -0.7575220    0.86815E-01   0.24330E+01   0.81155E-04
  56   56 O      17   -0.7575220    0.58705E-02   0.16452E+00   0.54878E-05
  57   57 SI     29   -1.1106000   -0.77435E+01  -0.21701E+03  -0.72387E-02
  58   58 SI     29   -1.1106000    0.19509E+02   0.54673E+03   0.18237E-01
  59   59 SI     29   -1.1106000    0.16208E+01   0.45423E+02   0.15151E-02
  60   60 SI     29   -1.1106000    0.15468E+01   0.43349E+02   0.14460E-02
  61   61 SI     29   -1.1106000   -0.15069E+01  -0.42230E+02  -0.14086E-02
  62   62 SI     29   -1.1106000   -0.15614E+01  -0.43759E+02  -0.14596E-02
  63   63 SI     29   -1.1106000   -0.13473E+00  -0.37758E+01  -0.12595E-03
  64   64 SI     29   -1.1106000   -0.10533E+01  -0.29520E+02  -0.98467E-03
  65   65 SI     29   -1.1106000   -0.19094E+01  -0.53512E+02  -0.17850E-02
  66   66 SI     29   -1.1106000   -0.16199E+01  -0.45398E+02  -0.15143E-02
  67   67 SI     29   -1.1106000   -0.16654E+01  -0.46671E+02  -0.15568E-02
  68   68 SI     29   -1.1106000   -0.19085E+01  -0.53484E+02  -0.17840E-02
  69   69 SI     29   -1.1106000   -0.39577E+00  -0.11091E+02  -0.36997E-03
  70   70 SI     29   -1.1106000    0.13082E+01   0.36662E+02   0.12229E-02
  71   71 SI     29   -1.1106000   -0.14224E+01  -0.39862E+02  -0.13296E-02
  72   72 SI     29   -1.1106000   -0.19328E+01  -0.54166E+02  -0.18068E-02
  73   73 SI     29   -1.1106000   -0.12681E+02  -0.35539E+03  -0.11855E-01
  74   74 SI     29   -1.1106000   -0.12251E+01  -0.34334E+02  -0.11453E-02
  75   75 SI     29   -1.1106000   -0.35392E+00  -0.99186E+01  -0.33085E-03
  76   76 SI     29   -1.1106000   -0.13715E+01  -0.38435E+02  -0.12820E-02
  77   77 SI     29   -1.1106000   -0.78400E-01  -0.21972E+01  -0.73289E-04
  78   78 SI     29   -1.1106000   -0.14193E+01  -0.39775E+02  -0.13268E-02
  79   79 SI     29   -1.1106000    0.44677E+00   0.12521E+02   0.41765E-03
  80   80 SI     29   -1.1106000   -0.74995E+00  -0.21017E+02  -0.70106E-03
  81   81 SI     29   -1.1106000   -0.69399E+00  -0.19449E+02  -0.64875E-03
  82   82 SI     29   -1.1106000   -0.11009E+01  -0.30852E+02  -0.10291E-02
  83   83 SI     29   -1.1106000   -0.51918E+00  -0.14550E+02  -0.48534E-03
  84   84 SI     29   -1.1106000   -0.13697E+00  -0.38387E+01  -0.12804E-03
  85   85 SI     29   -1.1106000    0.38130E-01   0.10686E+01   0.35644E-04
  86   86 SI     29   -1.1106000   -0.12533E+00  -0.35124E+01  -0.11716E-03
  87   87 SI     29   -1.1106000   -0.36479E+00  -0.10223E+02  -0.34101E-03
  88   88 SI     29   -1.1106000   -0.58456E+00  -0.16382E+02  -0.54646E-03
  89   89 SI     29   -1.1106000   -0.19214E+00  -0.53846E+01  -0.17961E-03
  90   90 SI     29   -1.1106000   -0.41364E-01  -0.11592E+01  -0.38667E-04
  91   91 SI     29   -1.1106000   -0.84008E+00  -0.23543E+02  -0.78532E-03
  92   92 SI     29   -1.1106000    0.31613E-01   0.88594E+00   0.29552E-04
  93   93 SI     29   -1.1106000   -0.10855E+01  -0.30422E+02  -0.10148E-02
  94   94 SI     29   -1.1106000    0.18784E+00   0.52642E+01   0.17559E-03
  95   95 SI     29   -1.1106000    0.21229E-01   0.59493E+00   0.19845E-04
  96   96 SI     29   -1.1106000    0.29268E-01   0.82022E+00   0.27360E-04
  97   97 SI     29   -1.1106000    0.12466E-01   0.34936E+00   0.11653E-04
  98   98 SI     29   -1.1106000    0.91176E-02   0.25552E+00   0.85233E-05
  99   99 SI     29   -1.1106000   -0.52727E-02  -0.14777E+00  -0.49290E-05
 100  100 SI     29   -1.1106000    0.33708E-01   0.94466E+00   0.31511E-04
 101  101 SI     29   -1.1106000    0.43865E-01   0.12293E+01   0.41005E-04
 102  102 SI     29   -1.1106000   -0.21128E-01  -0.59212E+00  -0.19751E-04
 103  103 SI     29   -1.1106000    0.34693E+00   0.97227E+01   0.32431E-03
 104  104 SI     29   -1.1106000    0.13292E+00   0.37252E+01   0.12426E-03
 105  105 SI     29   -1.1106000   -0.37195E-01  -0.10424E+01  -0.34770E-04
 106  106 SI     29   -1.1106000   -0.66879E-02  -0.18743E+00  -0.62519E-05
 107  107 SI     29   -1.1106000    0.10132E+00   0.28395E+01   0.94717E-04
 108  108 SI     29   -1.1106000    0.26707E+01   0.74845E+02   0.24966E-02
 109  109 SI     29   -1.1106000   -0.77077E-01  -0.21601E+01  -0.72053E-04
 110  110 SI     29   -1.1106000    0.15784E+00   0.44235E+01   0.14755E-03
 111  111 SI     29   -1.1106000   -0.48802E-01  -0.13677E+01  -0.45621E-04
 112  112 SI     29   -1.1106000    0.17624E+00   0.49392E+01   0.16475E-03
 113  113 SI     29   -1.1106000    0.38575E+00   0.10811E+02   0.36061E-03
 114  114 SI     29   -1.1106000    0.10342E+00   0.28984E+01   0.96680E-04
 115  115 SI     29   -1.1106000   -0.19217E-01  -0.53856E+00  -0.17964E-04
 116  116 SI     29   -1.1106000   -0.22222E+00  -0.62278E+01  -0.20774E-03
 117  117 SI     29   -1.1106000    0.47820E+00   0.13401E+02   0.44702E-03
 118  118 SI     29   -1.1106000   -0.17948E+00  -0.50298E+01  -0.16778E-03
 119  119 SI     29   -1.1106000   -0.12986E+00  -0.36394E+01  -0.12140E-03
 120  120 SI     29   -1.1106000   -0.29565E-01  -0.82856E+00  -0.27638E-04
 121  121 SI     29   -1.1106000    0.55863E+00   0.15655E+02   0.52221E-03
 122  122 SI     29   -1.1106000    0.36795E-02   0.10312E+00   0.34397E-05
 123  123 SI     29   -1.1106000   -0.14002E+00  -0.39241E+01  -0.13089E-03
 124  124 SI     29   -1.1106000   -0.24942E-02  -0.69900E-01  -0.23316E-05
 125  125 SI     29   -1.1106000    0.41275E-01   0.11567E+01   0.38584E-04
 126  126 SI     29   -1.1106000    0.69994E-02   0.19616E+00   0.65432E-05
 127  127 SI     29   -1.1106000   -0.45086E-01  -0.12635E+01  -0.42147E-04
 128  128 SI     29   -1.1106000    0.10286E+02   0.28825E+03   0.96151E-02
 129  129 SI     29   -1.1106000    0.43243E+00   0.12119E+02   0.40424E-03
 130  130 SI     29   -1.1106000   -0.35203E-01  -0.98657E+00  -0.32909E-04
 131  131 SI     29   -1.1106000   -0.83906E-01  -0.23515E+01  -0.78437E-04
 132  132 SI     29   -1.1106000    0.88872E+00   0.24906E+02   0.83079E-03
 133  133 SI     29   -1.1106000    0.13385E+00   0.37511E+01   0.12512E-03
 134  134 SI     29   -1.1106000    0.41375E+00   0.11595E+02   0.38677E-03
 135  135 SI     29   -1.1106000   -0.62158E-01  -0.17420E+01  -0.58106E-04
 136  136 SI     29   -1.1106000   -0.42098E-01  -0.11798E+01  -0.39354E-04
 137  137 SI     29   -1.1106000   -0.17576E-02  -0.49256E-01  -0.16430E-05
 138  138 SI     29   -1.1106000    0.11038E+00   0.30935E+01   0.10319E-03
 139  139 SI     29   -1.1106000   -0.52953E-01  -0.14840E+01  -0.49501E-04
 140  140 SI     29   -1.1106000    0.90447E-01   0.25348E+01   0.84551E-04
 141  141 SI     29   -1.1106000    0.10384E+00   0.29100E+01   0.97069E-04
 142  142 SI     29   -1.1106000   -0.17312E+00  -0.48516E+01  -0.16183E-03
 143  143 SI     29   -1.1106000   -0.10367E+00  -0.29055E+01  -0.96916E-04
 144  144 SI     29   -1.1106000    0.77768E-02   0.21794E+00   0.72698E-05
 145  145 SI     29   -1.1106000    0.29900E-02   0.83794E-01   0.27951E-05
 146  146 SI     29   -1.1106000    0.69041E-02   0.19349E+00   0.64540E-05
 147  147 SI     29   -1.1106000   -0.34907E-01  -0.97826E+00  -0.32631E-04
 148  148 SI     29   -1.1106000    0.44147E+02   0.12372E+04   0.41269E-01

  CONVERSION FACTORS 
     AN (MILLI T)        28.554470 * GN * P(SPIN) (BOHR**(-3))
     AN (MHZ)            28.024940 * AN (MILLI T) 
     AN (CM**(-1))   0.3335641E-04 * AN (MHZ) 
 TTTTTTTTTTTTTTTTTTTTTTTTTTTTTT ISOTROPIC   TELAPSE   110837.80 TCPU   110666.69
 ENDPROP   
 TTTTTTTTTTTTTTTTTTTTTTTTTTTTTT END         TELAPSE   110837.80 TCPU   110666.69
 EEEEEEEEEE TERMINATION  DATE 12 05 2015 TIME 17:44:48.1
