
         
 *******************************************************************************
 *                                                                             *
 *                                CRYSTAL09                                    *
 *                              public : 2.0                                   *
 *                      December 10th, 2012 - sequential executable            *
 *                                                                             *
 *                                                                             *
 *                                                                             *
 *                              MAIN AUTHORS                                   *
 *                                                                             *
 *    R. DOVESI(1,10), V.R. SAUNDERS(2), C. ROETTI(1,10), R. ORLANDO (1,3),    *
 *  C.M. ZICOVICH-WILSON(1,4), F. PASCALE(5), B. CIVALLERI(1,10), K. DOLL(6),  *
 *       N.M. HARRISON(2,7), I. J. BUSH(2), Ph. D'ARCO(8), M. LLUNELL(9)       *
 *                                                                             *
 * (1) THEORETICAL CHEMISTRY GROUP - UNIVERSITA' DI TORINO - TORINO (ITALY)    *
 *      http://www.crystal.unito.it                                            *
 * (2) COMPUTATIONAL SCIENCE & ENGINEERING DEPARTMENT - CCLRC DARESBURY (UK)   *
 *     http://www.cse.clrc.ac.uk/cmg/CRYSTAL/                                  *
 * (3) UNIVERSITA' DEL PIEMONTE ORIENTALE - ALESSANDRIA (ITALY)                *
 * (4) UNIVERSIDAD AUTONOMA DEL ESTADO DE MORELOS - CUERNAVACA (MEXICO)        *
 * (5) UNIVERSITE' HENRI POINCARE' - NANCY (FRANCE)                            *
 * (6) MPI FUER FESTKOERPERFORSCHUNG - STUTTGART (GERMANY)                     *
 * (7) IMPERIAL COLLEGE - LONDON (UK)                                          *
 * (8) UNIVERSITE' PIERRE ET MARIE CURIE - PARIS (FRANCE)                      *
 * (9) UNIVERSIDAD DE BARCELONA - BARCELONA (SPAIN)                            *
 *(10) NIS - NANOSTRUCTURED INTERFACES AND SURFACES - TORINO (ITALY)           *
 *     http://www.crystal.unito.it                                             *
 *******************************************************************************
 EEEEEEEEEE STARTING  DATE 14 08 2015 TIME 18:16:03.6

 *******************************************************************************
 Created with astools                                                            
 CRYSTAL - PROPERTIES - TYPE OF CALCULATION :  UNRESTRICTED OPEN SHELL
 *******************************************************************************
 SPIN POLARIZED SYSTEM: SUMMED SPIN DENSITY   -0.00004242

 KOHN-SHAM HAMILTONIAN

 (EXCHANGE)[CORRELATION] FUNCTIONAL:(BECKE)[LEE-YANG-PARR]

 NON-LOCAL WEIGHTING FACTOR (EXCHANGE) =           0.9000
 NON-LOCAL WEIGHTING FACTOR [CORRELATION] =        0.8100

 HYBRID EXCHANGE - PERCENTAGE OF FOCK EXCHANGE    20.0000

 SPIN POLARIZED DFT SELECTED

 DIRECT LATTICE VECTOR COMPONENTS (ANGSTROM)
        10.52960    0.00000    0.00000
         0.00000   10.48740    0.00000
         0.00000    0.00000   22.74380

 LATTICE PARAMETERS  (ANGSTROM AND DEGREES) - PRIMITIVE CELL
       A          B          C         ALPHA      BETA     GAMMA        VOLUME
   10.52960   10.48740   22.74380     47.6259   47.6259   47.6259    2511.55524
 *******************************************************************************
 N. OF ATOMS PER CELL      168  COULOMB OVERLAP TOL         (T1) 10** -8
 NUMBER OF SHELLS         1312  COULOMB PENETRATION TOL     (T2) 10** -8
 NUMBER OF AO             3568  EXCHANGE OVERLAP TOL        (T3) 10** -8
 N. OF ELECTRONS PER CELL 1856  EXCHANGE PSEUDO OVP (F(G))  (T4) 10** -8
 CORE ELECTRONS PER CELL   784  EXCHANGE PSEUDO OVP (P(G))  (T5) 10**-16
 N. OF SYMMETRY OPERATORS    1  POLE ORDER IN MONO ZONE                4
 CORE  PSEUDO POTENTIAL         TOL. ON PSEUDO              (TP) 10**- 6
 *******************************************************************************
   ATOM N.AT.  SHELL    X(A)      Y(A)      Z(A)      EXAD       N.ELECT.
 *******************************************************************************
    1    8 O     8    -0.205     0.523     0.156   2.535E-01       9.087
    2    8 O     8     0.605    -5.134    -0.220   2.535E-01       9.134
    3    8 O     8    -4.835     0.407     0.356   2.535E-01       9.126
    4    8 O     8    -5.144     5.183     0.406   2.535E-01       9.238
    5    8 O     8     1.471     4.507    10.235   2.535E-01       8.927
    6    8 O     8     1.674    -0.445    10.660   2.535E-01       8.941
    7    8 O     8    -3.723     4.468    10.236   2.535E-01       8.780
    8    8 O     8    -3.980    -1.183    10.134   2.535E-01       9.207
    9    8 O     8    -0.035    -3.853    -8.442   2.535E-01       9.319
   10    8 O     8    -5.104    -0.963   -10.275   2.535E-01       9.195
   11    8 O     8     3.431     0.785    -9.564   2.535E-01       9.358
   12    8 O     8     1.924    -1.843    -7.723   2.535E-01       9.371
   13    8 O     8    -2.242    -0.199   -11.226   2.535E-01       9.122
   14    8 O     8    -2.016     1.809    -9.310   2.535E-01       9.264
   15    8 O     8    -3.372    -0.168    -7.954   2.535E-01       9.560
   16    8 O     8     1.592     1.596    -7.716   2.535E-01       9.313
   17    8 O     8    -0.529     4.157    -7.912   2.535E-01       9.332
   18    8 O     8     1.394     4.157    -9.835   2.535E-01       9.346
   19    8 O     8    -2.707    -4.113    -7.700   2.535E-01       9.533
   20    8 O     8     4.019     4.552   -10.809   2.535E-01       9.155
   21    8 O     8    -1.135    -1.429    -7.195   2.535E-01       9.491
   22    8 O     8     0.106    -0.338    -9.470   2.535E-01       9.170
   23    8 O     8     3.953    -2.698    10.985   2.535E-01       9.147
   24    8 O     8     2.933    -4.288    -8.383   2.535E-01       9.325
   25    8 O     8    -5.067    -3.830    -9.584   2.535E-01       9.457
   26    8 O     8    -2.744     4.868    -9.716   2.535E-01       9.323
   27    8 O     8     5.260     1.618    11.337   2.535E-01       9.045
   28    8 O     8    -0.217     1.918    11.170   2.535E-01       8.995
   29    8 O     8    -2.356    -2.913    11.116   2.535E-01       9.251
   30    8 O     8     4.019     3.284    -8.488   2.535E-01       9.306
   31    8 O     8    -0.628    -5.242   -10.890   2.535E-01       9.314
   32    8 O     8     1.697    -3.877   -10.858   2.535E-01       9.279
   33    8 O     8    -2.626    -2.203    -9.312   2.535E-01       9.441
   34    8 O     8    -5.185     1.445    -7.160   2.535E-01       9.274
   35    8 O     8    -1.943    -2.770    -5.314   2.535E-01       9.417
   36    8 O     8    -3.714    -4.174    -0.975   2.535E-01       9.260
   37    8 O     8     5.235    -4.822    -6.692   2.535E-01       9.327
   38    8 O     8     4.597     0.372    -4.699   2.535E-01       9.508
   39    8 O     8    -3.567     3.612    -0.734   2.535E-01       9.276
   40    8 O     8    -0.682     3.586    -4.996   2.535E-01       9.412
   41    8 O     8    -1.271     0.931    -5.887   2.535E-01       9.382
   42    8 O     8     3.670    -2.439    -5.302   2.535E-01       9.354
   43    8 O     8     1.067    -4.904    -2.864   2.535E-01       9.299
   44    8 O     8    -5.041    -2.012    -7.450   2.535E-01       9.302
   45    8 O     8    -2.776     1.406    -2.612   2.535E-01       9.563
   46    8 O     8    -2.949    -5.011    -5.147   2.535E-01       9.374
   47    8 O     8     2.314     3.492    -0.249   2.535E-01       9.150
   48    8 O     8     2.398    -2.326    -2.464   2.535E-01       9.307
   49    8 O     8     4.760     2.909    -2.272   2.535E-01       9.243
   50    8 O     8     4.165    -4.384    -1.513   2.535E-01       9.487
   51    8 O     8    -2.817    -0.342    -0.844   2.535E-01       9.270
   52    8 O     8     2.108     3.936    -6.472   2.535E-01       9.350
   53    8 O     8    -3.326    -0.599    -5.432   2.535E-01       9.538
   54    8 O     8     1.800     0.301    -1.297   2.535E-01       9.330
   55    8 O     8     5.122     0.487    -2.266   2.535E-01       9.550
   56    8 O     8     3.416     0.022    -7.091   2.535E-01       9.538
   57    8 O     8    -4.547    -5.215    -3.347   2.535E-01       9.420
   58    8 O     8     3.614    -4.774    -4.364   2.535E-01       9.269
   59    8 O     8    -1.862     4.999    -2.767   2.535E-01       9.248
   60    8 O     8     4.275     3.069    -5.148   2.535E-01       9.366
   61    8 O     8    -0.414     2.642    -1.970   2.535E-01       9.282
   62    8 O     8     0.992    -4.300    -5.917   2.535E-01       9.289
   63    8 O     8    -3.454     2.878    -4.761   2.535E-01       9.435
   64    8 O     8    -4.295    -2.609    -3.570   2.535E-01       9.295
   65    8 O     8    -0.960    -2.685    -3.023   2.535E-01       9.286
   66    8 O     8    -3.441     3.605    -7.147   2.535E-01       9.417
   67    8 O     8     1.310    -1.701     0.321   2.535E-01       9.041
   68    8 O     8     2.077     3.263    -3.298   2.535E-01       9.410
   69    8 O     8    -0.312     0.368    -3.553   2.535E-01       9.375
   70    8 O     8     0.868    -1.248    -5.327   2.535E-01       9.339
   71    8 O     8     4.814    -2.150    -1.336   2.535E-01       9.249
   72    8 O     8     2.203     1.388    -5.088   2.535E-01       9.560
   73   14 SI    6     1.667     4.582     0.989   6.000E-01      13.143
   74   14 SI    6     3.916     1.995     0.273   6.000E-01      14.051
   75   14 SI    6     0.155     3.158     2.012   6.000E-01      14.089
   76   14 SI    6     2.868     0.716     1.921   6.000E-01      14.067
   77   14 SI    6     1.553     1.918     3.364   6.000E-01      14.004
   78   14 SI    6     4.131     4.576     3.253   6.000E-01      13.994
   79   14 SI    6     1.403    -0.035     0.278   6.000E-01      12.733
   80   14 SI    6     5.169    -3.510    -0.323   6.000E-01      12.451
   81   14 SI    6     0.350    -2.303     1.651   6.000E-01      13.592
   82   14 SI    6     3.163    -4.368     1.812   6.000E-01      14.154
   83   14 SI    6     1.609    -3.403     3.213   6.000E-01      14.067
   84   14 SI    6     4.223    -0.848     3.025   6.000E-01      13.934
   85   14 SI    6    -3.457     5.037     0.278   6.000E-01      12.602
   86   14 SI    6    -1.307     1.852     0.711   6.000E-01      13.966
   87   14 SI    6     5.142     2.955     2.020   6.000E-01      14.083
   88   14 SI    6    -2.372     0.527     2.217   6.000E-01      14.112
   89   14 SI    6    -3.818     1.906     3.293   6.000E-01      14.001
   90   14 SI    6    -1.084     4.468     3.404   6.000E-01      14.006
   91   14 SI    6    -3.580    -0.688     0.698   6.000E-01      13.084
   92   14 SI    6    -0.686    -3.769     0.234   6.000E-01      14.043
   93   14 SI    6    -4.994    -2.344     1.658   6.000E-01      14.033
   94   14 SI    6    -2.105    -4.626     1.898   6.000E-01      14.078
   95   14 SI    6    -3.654    -3.423     3.195   6.000E-01      13.985
   96   14 SI    6    -0.861    -0.887     3.130   6.000E-01      14.059
   97   14 SI    6     0.266     0.492     4.598   6.000E-01      13.983
   98   14 SI    6     2.886     3.268     4.677   6.000E-01      14.000
   99   14 SI    6     1.584     4.598     6.013   6.000E-01      13.985
  100   14 SI    6     4.251     1.891     5.939   6.000E-01      13.977
  101   14 SI    6     0.240     3.198     7.231   6.000E-01      14.045
  102   14 SI    6     2.947     0.608     7.304   6.000E-01      14.062
  103   14 SI    6     0.267    -4.609     4.631   6.000E-01      14.003
  104   14 SI    6     2.848    -1.991     4.525   6.000E-01      14.013
  105   14 SI    6     1.608    -0.710     5.998   6.000E-01      13.992
  106   14 SI    6     4.211    -3.299     5.843   6.000E-01      14.003
  107   14 SI    6     0.309    -2.027     7.379   6.000E-01      14.040
  108   14 SI    6     2.931    -4.544     7.330   6.000E-01      14.005
  109   14 SI    6    -5.070     0.487     4.550   6.000E-01      14.013
  110   14 SI    6    -2.504     3.191     4.669   6.000E-01      13.992
  111   14 SI    6    -3.713     4.500     6.099   6.000E-01      14.000
  112   14 SI    6    -1.079     1.850     5.893   6.000E-01      13.994
  113   14 SI    6    -4.959     3.094     7.446   6.000E-01      13.975
  114   14 SI    6    -2.319     0.559     7.335   6.000E-01      14.016
  115   14 SI    6    -4.958    -4.733     4.614   6.000E-01      13.993
  116   14 SI    6    -2.324    -2.045     4.518   6.000E-01      14.001
  117   14 SI    6    -3.641    -0.720     5.910   6.000E-01      13.991
  118   14 SI    6    -1.041    -3.281     5.964   6.000E-01      13.981
  119   14 SI    6    -5.063    -1.957     7.239   6.000E-01      13.997
  120   14 SI    6    -2.229    -4.688     7.301   6.000E-01      14.050
  121   14 SI    6     1.663     1.992     8.546   6.000E-01      14.072
  122   14 SI    6     4.235     4.571     8.644   6.000E-01      14.014
  123   14 SI    6     1.568    -3.319     8.765   6.000E-01      14.010
  124   14 SI    6     4.252    -0.593     8.726   6.000E-01      14.060
  125   14 SI    6    -3.534     1.815     8.798   6.000E-01      14.061
  126   14 SI    6    -0.928     4.530     8.668   6.000E-01      13.905
  127   14 SI    6    -3.822    -3.479     8.342   6.000E-01      14.052
  128   14 SI    6    -0.878    -0.588     8.743   6.000E-01      14.095
  129   14 SI    6     0.518     0.784    10.125   6.000E-01      13.065
  130   14 SI    6     2.745     3.383    10.003   6.000E-01      13.831
  131   14 SI    6     0.996     5.182   -11.122   6.000E-01      11.978
  132   14 SI    6     2.737    -1.706    10.068   6.000E-01      13.076
  133   14 SI    6    -4.794     0.459    10.200   6.000E-01      13.057
  134   14 SI    6    -2.450     3.427    10.098   6.000E-01      13.794
  135   14 SI    6    -4.765    -4.765     9.984   6.000E-01      13.877
  136   14 SI    6    -2.277    -1.388    10.367   6.000E-01      12.597
  137  272 HF   11    -1.201     3.143   -10.374   2.055E-01       9.645
  138  272 HF   11    -4.236     5.084    -8.439   2.055E-01       9.516
  139  272 HF   11     1.850    -0.018    -8.665   2.055E-01       9.370
  140  272 HF   11    -1.808    -0.137    -9.373   2.055E-01       9.268
  141  272 HF   11     3.932     2.601   -10.421   2.055E-01       9.556
  142  272 HF   11     3.596    -4.157   -10.376   2.055E-01       9.301
  143  272 HF   11    -1.666    -3.954    -9.626   2.055E-01       9.188
  144  272 HF   11    -4.388    -2.588   -11.052   2.055E-01       9.477
  145  272 HF   11     5.049    -0.250    -8.508   2.055E-01       9.445
  146  272 HF   11     1.272     4.911    -8.015   2.055E-01       9.258
  147  272 HF   11    -4.051     1.525    -1.034   2.055E-01       9.316
  148  272 HF   11    -1.936     3.186    -3.429   2.055E-01       9.562
  149  272 HF   11     4.032    -3.245    -7.073   2.055E-01       9.563
  150  272 HF   11     3.446    -0.676    -1.796   2.055E-01       9.934
  151  272 HF   11     4.257    -3.117    -3.212   2.055E-01       9.717
  152  272 HF   11     1.030     3.891    -1.721   2.055E-01       9.304
  153  272 HF   11     0.443    -2.620    -6.875   2.055E-01       9.366
  154  272 HF   11     0.599    -3.152    -2.060   2.055E-01       9.597
  155  272 HF   11    -4.762     4.440    -5.112   2.055E-01       9.289
  156  272 HF   11    -3.423     1.406    -6.343   2.055E-01       9.416
  157  272 HF   11     1.965     4.891    -4.690   2.055E-01       9.408
  158  272 HF   11    -1.173    -0.933    -4.949   2.055E-01       9.594
  159  272 HF   11    -1.115     0.568    -1.712   2.055E-01       9.513
  160  272 HF   11     3.729     1.844    -3.597   2.055E-01       9.572
  161  272 HF   11    -2.615    -3.840    -3.589   2.055E-01       9.321
  162  272 HF   11     0.188     1.769    -4.939   2.055E-01       9.571
  163  272 HF   11     3.400     2.210    -6.968   2.055E-01       9.371
  164  272 HF   11    -1.927     4.721    -6.677   2.055E-01       9.439
  165  272 HF   11    -4.524    -0.605    -3.725   2.055E-01       9.655
  166  272 HF   11    -5.145     4.572    -1.644   2.055E-01       9.099
  167  272 HF   11    -3.025    -2.043    -7.092   2.055E-01       9.210
  168  272 HF   11     2.870    -0.602    -5.257   2.055E-01       9.526
 *******************************************************************************
 DE(K)                   0.000E+00  ENERGY LEVEL SHIFTING        0.00000
 TOTAL ENERGY -2.5512096343551E+04  CONVERGENCE ON ENER        1.828E-07
 KIN. ENERGY   2.4362691300835E+04  VIR. COEFF.           1.01221012E+00
 N. OF SCF CYCLES              140  FERMI ENERGY              -0.333E-01
 WEIGHT OF F(I) IN F(I+1)      97
 SHRINK. FACT.(MONKH.)     2  2  2  SHRINKING FACTOR(GILAT NET)        2
 NUMBER OF K POINTS IN THE IBZ   8  CELL VOLUME (A.U.)       16948.81508
 *******************************************************************************

 GCALCO - MAX INDICES DIRECT LATTICE VECTOR    19    19     8
 NO.OF VECTORS CREATED 6999 STARS 1064 RMAX   305.32186 BOHR

 DIMENSIONS  P(G)= 9568454 F(G)= 1693560 P(G),F(G) (IRR) 4793923
 MAX G-VECTOR INDEX FOR 1- AND 2-ELECTRON INTEGRALS  59


 CAPPA:IS1  2;IS2  2;IS3  2; K PTS MONK NET    8; SYMMOPS: K SPACE  2;G SPACE  1


 CAPPA:IS1  6;IS2  6;IS3  3; K PTS MONK NET   56; SYMMOPS: K SPACE  2;G SPACE  1

 *******************************************************************************
 RESTART WITH NEW K POINTS NET
 *******************************************************************************
 POINTS IN THE IBZ                  56 POINTS(GILAT NET)                56
 SHRINK FACTORS(MONK.)         6  6  3 SHRINK FACTOR(GILAT)              6
 *******************************************************************************
 *** K POINTS COORDINATES (OBLIQUE COORDINATES IN UNITS OF IS =  6)
   1-R(  0  0  0)   2-C(  1  0  0)   3-C(  2  0  0)   4-R(  3  0  0)
   5-C(  0  1  0)   6-C(  1  1  0)   7-C(  2  1  0)   8-C(  3  1  0)
   9-C(  4  1  0)  10-C(  5  1  0)  11-C(  0  2  0)  12-C(  1  2  0)
  13-C(  2  2  0)  14-C(  3  2  0)  15-C(  4  2  0)  16-C(  5  2  0)
  17-R(  0  3  0)  18-C(  1  3  0)  19-C(  2  3  0)  20-R(  3  3  0)
  21-C(  0  0  1)  22-C(  1  0  1)  23-C(  2  0  1)  24-C(  3  0  1)
  25-C(  4  0  1)  26-C(  5  0  1)  27-C(  0  1  1)  28-C(  1  1  1)
  29-C(  2  1  1)  30-C(  3  1  1)  31-C(  4  1  1)  32-C(  5  1  1)
  33-C(  0  2  1)  34-C(  1  2  1)  35-C(  2  2  1)  36-C(  3  2  1)
  37-C(  4  2  1)  38-C(  5  2  1)  39-C(  0  3  1)  40-C(  1  3  1)
  41-C(  2  3  1)  42-C(  3  3  1)  43-C(  4  3  1)  44-C(  5  3  1)
  45-C(  0  4  1)  46-C(  1  4  1)  47-C(  2  4  1)  48-C(  3  4  1)
  49-C(  4  4  1)  50-C(  5  4  1)  51-C(  0  5  1)  52-C(  1  5  1)
  53-C(  2  5  1)  54-C(  3  5  1)  55-C(  4  5  1)  56-C(  5  5  1)

 FERMI ENERGY AND DENSITY MATRIX CALCULATION ON COMPUTED EIGENVECTORS
 DENSITY MATRIX AT SCF CYCLE (140+1)

 POSSIBLY CONDUCTING STATE - EFERMI(AU) -3.3220298E-02 (RES. CHARGE  2.02E-10;IT. 12)

 CORE DENSITY MATRIX CALCULATION
 TTTTTTTTTTTTTTTTTTTTTTTTTTTTTT NEWK        TELAPSE    92350.89 TCPU   264731.18
 TTTTTTTTTTTTTTTTTTTTTTTTTTTTTT SETPRINT    TELAPSE    92350.89 TCPU   264731.18

 *******************************************************************************
 HYPERFINE ELECTRON-NUCLEAR SPIN INTERACTION TENSOR
 ANISOTROPIC COMPONENTS - THE TENSOR IS TRACELESS
 *******************************************************************************


 POINT   ATOM  MASS NO  NUCLEAR G FACTOR
    1    1 O      17      -0.7575220

 TENSOR IN ORIGINAL CARTESIAN AXES
 XX  2.075122E-07 YY  4.267696E-08 ZZ -2.501891E-07 XY  1.371049E-07 XZ  2.019234E-08 YZ  2.896616E-07

 TENSOR IN PRINCIPAL AXIS SYSTEM
 AA  3.435484E-07 BB  8.951913E-08 CC -4.330675E-07

 PRINCIPAL AXES
         X             Y             Z
 A  6.922025E-01  6.389853E-01  3.354898E-01
 B -7.174532E-01  5.588813E-01  4.158277E-01
 C  7.820887E-02 -5.285352E-01  8.453011E-01

 ANGLES BETWEEN PRINCIPAL AXES AND ORIGINAL AXES (DEGREES)
         X             Y             Z
 A     46.195288     50.283800     70.397675
 B    135.844607     56.021536     65.428546
 C     85.514381    121.906539     32.295793


 POINT   ATOM  MASS NO  NUCLEAR G FACTOR
    2    2 O      17      -0.7575220

 TENSOR IN ORIGINAL CARTESIAN AXES
 XX -1.649329E-07 YY  8.182515E-09 ZZ  1.567504E-07 XY -2.483659E-07 XZ  7.416050E-09 YZ -1.315176E-07

 TENSOR IN PRINCIPAL AXIS SYSTEM
 AA -3.515297E-07 BB  2.865030E-07 CC  6.502664E-08

 PRINCIPAL AXES
         X             Y             Z
 A  7.895185E-01  5.967103E-01  1.435181E-01
 B -3.729426E-01  6.521824E-01 -6.599788E-01
 C -4.874161E-01  4.675414E-01  7.374487E-01

 ANGLES BETWEEN PRINCIPAL AXES AND ORIGINAL AXES (DEGREES)
         X             Y             Z
 A     37.859465     53.365350     81.748528
 B    111.897209     49.293653    131.298254
 C    119.170887     62.125176     42.485464


 POINT   ATOM  MASS NO  NUCLEAR G FACTOR
    3    3 O      17      -0.7575220

 TENSOR IN ORIGINAL CARTESIAN AXES
 XX -1.353231E-07 YY  1.027114E-07 ZZ  3.261176E-08 XY -2.242851E-07 XZ  2.492801E-07 YZ  1.309631E-07

 TENSOR IN PRINCIPAL AXIS SYSTEM
 AA -4.382052E-07 BB  2.423526E-07 CC  1.958526E-07

 PRINCIPAL AXES
         X             Y             Z
 A  7.420310E-01  4.318903E-01 -5.126995E-01
 B -6.192382E-01  7.345515E-01 -2.774496E-01
 C  2.567764E-01  5.233593E-01  8.125029E-01

 ANGLES BETWEEN PRINCIPAL AXES AND ORIGINAL AXES (DEGREES)
         X             Y             Z
 A     42.095287     64.412418    120.843812
 B    128.260522     42.730672    106.108047
 C     75.121129     58.442142     35.658805


 POINT   ATOM  MASS NO  NUCLEAR G FACTOR
    4    4 O      17      -0.7575220

 TENSOR IN ORIGINAL CARTESIAN AXES
 XX -4.073205E-07 YY  2.075348E-07 ZZ  1.997858E-07 XY  5.666158E-08 XZ  8.106246E-08 YZ -5.454954E-07

 TENSOR IN PRINCIPAL AXIS SYSTEM
 AA -4.775363E-07 BB  7.494185E-07 CC -2.718822E-07

 PRINCIPAL AXES
         X             Y             Z
 A  8.118753E-01 -4.033457E-01 -4.221027E-01
 B -1.472690E-02  7.086097E-01 -7.054469E-01
 C  5.836451E-01  5.789512E-01  5.693627E-01

 ANGLES BETWEEN PRINCIPAL AXES AND ORIGINAL AXES (DEGREES)
         X             Y             Z
 A     35.720437    113.787500    114.967413
 B     90.843820     44.878090    134.865663
 C     54.292672     54.623188     55.294202


 POINT   ATOM  MASS NO  NUCLEAR G FACTOR
    5    5 O      17      -0.7575220

 TENSOR IN ORIGINAL CARTESIAN AXES
 XX  2.710308E-07 YY -2.693453E-07 ZZ -1.685438E-09 XY -1.123822E-07 XZ  1.813775E-07 YZ  2.391741E-07

 TENSOR IN PRINCIPAL AXIS SYSTEM
 AA  3.616714E-07 BB -4.594113E-07 CC  9.773988E-08

 PRINCIPAL AXES
         X             Y             Z
 A  8.914789E-01  1.416535E-02  4.528406E-01
 B  2.575891E-01  8.063985E-01 -5.323245E-01
 C -3.727105E-01  5.912029E-01  7.152384E-01

 ANGLES BETWEEN PRINCIPAL AXES AND ORIGINAL AXES (DEGREES)
         X             Y             Z
 A     26.940317     89.188358     63.073918
 B     75.072945     36.254472    122.162648
 C    111.882880     53.757583     44.337259


 POINT   ATOM  MASS NO  NUCLEAR G FACTOR
    6    6 O      17      -0.7575220

 TENSOR IN ORIGINAL CARTESIAN AXES
 XX  1.797960E-07 YY  1.138277E-07 ZZ -2.936237E-07 XY  8.607065E-08 XZ -3.235655E-08 YZ -1.545621E-07

 TENSOR IN PRINCIPAL AXIS SYSTEM
 AA  2.649276E-07 BB  8.065983E-08 CC -3.455874E-07

 PRINCIPAL AXES
         X             Y             Z
 A  7.333227E-01  6.401071E-01 -2.291303E-01
 B -6.797339E-01  6.972764E-01 -2.275245E-01
 C  1.412705E-02  3.225965E-01  9.464311E-01

 ANGLES BETWEEN PRINCIPAL AXES AND ORIGINAL AXES (DEGREES)
         X             Y             Z
 A     42.834324     50.200192    103.245872
 B    132.822856     45.791106    103.151374
 C     89.190552     71.179976     18.838740


 POINT   ATOM  MASS NO  NUCLEAR G FACTOR
    7    7 O      17      -0.7575220

 TENSOR IN ORIGINAL CARTESIAN AXES
 XX -1.202831E-07 YY -1.204672E-07 ZZ  2.407502E-07 XY -4.820599E-08 XZ -7.081766E-08 YZ  1.109737E-07

 TENSOR IN PRINCIPAL AXIS SYSTEM
 AA -1.164143E-07 BB -1.718727E-07 CC  2.882870E-07

 PRINCIPAL AXES
         X             Y             Z
 A  7.833440E-01 -5.258035E-01  3.315159E-01
 B  5.867381E-01  8.015550E-01 -1.150997E-01
 C -2.052084E-01  2.846757E-01  9.364023E-01

 ANGLES BETWEEN PRINCIPAL AXES AND ORIGINAL AXES (DEGREES)
         X             Y             Z
 A     38.432219    121.722351     70.639192
 B     54.074124     36.721148     96.609377
 C    101.841697     73.460536     20.544109


 POINT   ATOM  MASS NO  NUCLEAR G FACTOR
    8    8 O      17      -0.7575220

 TENSOR IN ORIGINAL CARTESIAN AXES
 XX -3.017304E-08 YY  1.293368E-07 ZZ -9.916376E-08 XY  1.577817E-07 XZ -1.372198E-07 YZ -7.855702E-08

 TENSOR IN PRINCIPAL AXIS SYSTEM
 AA -2.113413E-07 BB  2.791799E-07 CC -6.783855E-08

 PRINCIPAL AXES
         X             Y             Z
 A  6.761054E-01 -1.441210E-01  7.225723E-01
 B  5.506020E-01  7.504963E-01 -3.655035E-01
 C -4.896111E-01  6.449686E-01  5.867679E-01

 ANGLES BETWEEN PRINCIPAL AXES AND ORIGINAL AXES (DEGREES)
         X             Y             Z
 A     47.459953     98.286380     43.732738
 B     56.591680     41.366613    111.438571
 C    119.315023     49.836681     54.072020


 POINT   ATOM  MASS NO  NUCLEAR G FACTOR
    9    9 O      17      -0.7575220

 TENSOR IN ORIGINAL CARTESIAN AXES
 XX  2.207303E-07 YY  5.014599E-07 ZZ -7.221902E-07 XY  4.796817E-07 XZ -7.487328E-08 YZ -4.287535E-07

 TENSOR IN PRINCIPAL AXIS SYSTEM
 AA -8.955002E-08 BB  9.527290E-07 CC -8.631790E-07

 PRINCIPAL AXES
         X             Y             Z
 A  8.316273E-01 -5.004523E-01  2.407147E-01
 B  5.499210E-01  8.025094E-01 -2.314423E-01
 C -7.734995E-02  3.248478E-01  9.425979E-01

 ANGLES BETWEEN PRINCIPAL AXES AND ORIGINAL AXES (DEGREES)
         X             Y             Z
 A     33.733736    120.029929     76.071275
 B     56.638410     36.629592    103.382003
 C     94.436257     71.043645     19.507473


 POINT   ATOM  MASS NO  NUCLEAR G FACTOR
   10   10 O      17      -0.7575220

 TENSOR IN ORIGINAL CARTESIAN AXES
 XX -1.965723E-07 YY  3.061478E-07 ZZ -1.095755E-07 XY -3.197242E-08 XZ  1.447480E-07 YZ -3.625334E-07

 TENSOR IN PRINCIPAL AXIS SYSTEM
 AA -3.863735E-07 BB  5.302747E-07 CC -1.439011E-07

 PRINCIPAL AXES
         X             Y             Z
 A  5.212499E-01 -3.767145E-01 -7.657576E-01
 B -1.392182E-01  8.477420E-01 -5.118123E-01
 C  8.419720E-01  3.733895E-01  3.894399E-01

 ANGLES BETWEEN PRINCIPAL AXES AND ORIGINAL AXES (DEGREES)
         X             Y             Z
 A     58.583869    112.130320    139.974438
 B     98.002610     32.033084    120.784623
 C     32.651055     68.075189     67.080346


 POINT   ATOM  MASS NO  NUCLEAR G FACTOR
   11   11 O      17      -0.7575220

 TENSOR IN ORIGINAL CARTESIAN AXES
 XX -5.201691E-08 YY  3.975910E-07 ZZ -3.455741E-07 XY  3.085089E-07 XZ  3.355905E-07 YZ -1.564366E-08

 TENSOR IN PRINCIPAL AXIS SYSTEM
 AA  2.281396E-08 BB  5.782468E-07 CC -6.010607E-07

 PRINCIPAL AXES
         X             Y             Z
 A  6.242009E-01 -4.927446E-01  6.062805E-01
 B  5.037743E-01  8.469987E-01  1.697196E-01
 C -5.971472E-01  1.994893E-01  7.769294E-01

 ANGLES BETWEEN PRINCIPAL AXES AND ORIGINAL AXES (DEGREES)
         X             Y             Z
 A     51.376442    119.521138     52.678960
 B     59.749982     32.113287     80.228481
 C    126.665853     78.492902     39.019716


 POINT   ATOM  MASS NO  NUCLEAR G FACTOR
   12   12 O      17      -0.7575220

 TENSOR IN ORIGINAL CARTESIAN AXES
 XX  3.414797E-07 YY -4.421239E-07 ZZ  1.006442E-07 XY  1.275459E-07 XZ -3.748466E-07 YZ -6.324385E-08

 TENSOR IN PRINCIPAL AXIS SYSTEM
 AA  6.330959E-07 BB -4.623617E-07 CC -1.707343E-07

 PRINCIPAL AXES
         X             Y             Z
 A  8.038198E-01  1.275424E-01 -5.810393E-01
 B -1.567100E-01  9.876447E-01  0.000000E+00
 C  5.738604E-01  9.105467E-02  8.138755E-01

 ANGLES BETWEEN PRINCIPAL AXES AND ORIGINAL AXES (DEGREES)
         X             Y             Z
 A     36.503571     82.672399    125.523676
 B     99.015984      9.015984     90.000000
 C     54.980137     84.775716     35.523676


 POINT   ATOM  MASS NO  NUCLEAR G FACTOR
   13   13 O      17      -0.7575220

 TENSOR IN ORIGINAL CARTESIAN AXES
 XX  1.115318E-07 YY  1.322434E-07 ZZ -2.437752E-07 XY  1.833971E-08 XZ -1.205880E-07 YZ -2.118878E-08

 TENSOR IN PRINCIPAL AXIS SYSTEM
 AA  1.657073E-07 BB  1.156647E-07 CC -2.813720E-07

 PRINCIPAL AXES
         X             Y             Z
 A  7.723166E-01  5.806703E-01 -2.575829E-01
 B -5.643079E-01  8.133406E-01  1.415404E-01
 C  2.916910E-01  3.604206E-02  9.558333E-01

 ANGLES BETWEEN PRINCIPAL AXES AND ORIGINAL AXES (DEGREES)
         X             Y             Z
 A     39.437621     54.502296    104.926691
 B    124.354243     35.576387     81.863006
 C     73.040780     87.934495     17.092145


 POINT   ATOM  MASS NO  NUCLEAR G FACTOR
   14   14 O      17      -0.7575220

 TENSOR IN ORIGINAL CARTESIAN AXES
 XX  1.955986E-07 YY  4.793458E-07 ZZ -6.749444E-07 XY -3.204702E-07 XZ -1.784922E-07 YZ  3.368641E-07

 TENSOR IN PRINCIPAL AXIS SYSTEM
 AA -1.156218E-08 BB  7.865848E-07 CC -7.750227E-07

 PRINCIPAL AXES
         X             Y             Z
 A  8.432558E-01  5.358714E-01  4.197071E-02
 B -5.279959E-01  8.111688E-01  2.514468E-01
 C  1.006978E-01 -2.341943E-01  9.669607E-01

 ANGLES BETWEEN PRINCIPAL AXES AND ORIGINAL AXES (DEGREES)
         X             Y             Z
 A     32.514464     57.596974     87.594549
 B    121.870144     35.789712     75.436860
 C     84.220646    103.544134     14.769171


 POINT   ATOM  MASS NO  NUCLEAR G FACTOR
   15   15 O      17      -0.7575220

 TENSOR IN ORIGINAL CARTESIAN AXES
 XX -2.435915E-07 YY  5.344699E-07 ZZ -2.908784E-07 XY -2.990300E-07 XZ  6.216446E-08 YZ -2.537494E-08

 TENSOR IN PRINCIPAL AXIS SYSTEM
 AA -3.760790E-07 BB  6.382087E-07 CC -2.621297E-07

 PRINCIPAL AXES
         X             Y             Z
 A  8.198285E-01  2.551652E-01 -5.126129E-01
 B -3.237986E-01  9.449333E-01 -4.749235E-02
 C  4.722666E-01  2.049189E-01  8.573054E-01

 ANGLES BETWEEN PRINCIPAL AXES AND ORIGINAL AXES (DEGREES)
         X             Y             Z
 A     34.932372     75.216624    120.838029
 B    108.892804     19.102733     92.722135
 C     61.818474     78.175248     30.984635


 POINT   ATOM  MASS NO  NUCLEAR G FACTOR
   16   16 O      17      -0.7575220

 TENSOR IN ORIGINAL CARTESIAN AXES
 XX -2.762057E-07 YY  2.577458E-06 ZZ -2.301253E-06 XY -2.312771E-07 XZ  3.530660E-06 YZ  2.485421E-07

 TENSOR IN PRINCIPAL AXIS SYSTEM
 AA  2.378493E-06 BB  2.598308E-06 CC -4.976801E-06

 PRINCIPAL AXES
         X             Y             Z
 A  7.837718E-01  1.616507E-01  5.996423E-01
 B -1.557504E-01  9.858371E-01 -6.218458E-02
 C -6.012018E-01 -4.465602E-02  7.978485E-01

 ANGLES BETWEEN PRINCIPAL AXES AND ORIGINAL AXES (DEGREES)
         X             Y             Z
 A     38.392776     80.697277     53.155718
 B     98.960321      9.654435     93.565214
 C    126.956020     92.559452     37.074864


 POINT   ATOM  MASS NO  NUCLEAR G FACTOR
   17   17 O      17      -0.7575220

 TENSOR IN ORIGINAL CARTESIAN AXES
 XX  1.372788E-06 YY -1.415367E-07 ZZ -1.231251E-06 XY -1.633363E-07 XZ -9.750547E-07 YZ  1.001347E-06

 TENSOR IN PRINCIPAL AXIS SYSTEM
 AA  1.825894E-06 BB  1.779060E-07 CC -2.003800E-06

 PRINCIPAL AXES
         X             Y             Z
 A  8.904636E-01 -2.638779E-01 -3.707332E-01
 B  3.935739E-01  8.555426E-01  3.363724E-01
 C  2.284168E-01 -4.454382E-01  8.656850E-01

 ANGLES BETWEEN PRINCIPAL AXES AND ORIGINAL AXES (DEGREES)
         X             Y             Z
 A     27.068444    105.300290    111.760840
 B     66.822938     31.180265     70.343987
 C     76.796121    116.451381     30.038983


 POINT   ATOM  MASS NO  NUCLEAR G FACTOR
   18   18 O      17      -0.7575220

 TENSOR IN ORIGINAL CARTESIAN AXES
 XX  4.568655E-07 YY -1.344846E-07 ZZ -3.223809E-07 XY -8.828701E-08 XZ  1.278542E-07 YZ  7.384010E-08

 TENSOR IN PRINCIPAL AXIS SYSTEM
 AA  4.866262E-07 BB -1.115533E-07 CC -3.750729E-07

 PRINCIPAL AXES
         X             Y             Z
 A  9.819696E-01 -1.224593E-01  1.440119E-01
 B  6.266895E-02  9.296130E-01  3.631696E-01
 C -1.783489E-01 -3.475965E-01  9.205261E-01

 ANGLES BETWEEN PRINCIPAL AXES AND ORIGINAL AXES (DEGREES)
         X             Y             Z
 A     10.896702     97.034057     81.719934
 B     86.406979     21.625424     68.705017
 C    100.273601    110.340375     22.996878


 POINT   ATOM  MASS NO  NUCLEAR G FACTOR
   19   19 O      17      -0.7575220

 TENSOR IN ORIGINAL CARTESIAN AXES
 XX -6.124188E-06 YY  1.126255E-05 ZZ -5.138359E-06 XY  2.660069E-06 XZ -1.513450E-06 YZ -3.680154E-06

 TENSOR IN PRINCIPAL AXIS SYSTEM
 AA -7.222977E-06 BB  1.250858E-05 CC -5.285600E-06

 PRINCIPAL AXES
         X             Y             Z
 A  8.082602E-01  9.303774E-04  5.888247E-01
 B  1.550896E-01  9.643524E-01 -2.144101E-01
 C -5.680340E-01  2.646198E-01  7.793034E-01

 ANGLES BETWEEN PRINCIPAL AXES AND ORIGINAL AXES (DEGREES)
         X             Y             Z
 A     36.073705     89.946693     53.926347
 B     81.078006     15.344458    102.380923
 C    124.613246     74.655639     38.803165


 POINT   ATOM  MASS NO  NUCLEAR G FACTOR
   20   20 O      17      -0.7575220

 TENSOR IN ORIGINAL CARTESIAN AXES
 XX  4.304298E-07 YY -8.828322E-07 ZZ  4.524024E-07 XY  5.779189E-07 XZ  1.551733E-06 YZ  6.700740E-07

 TENSOR IN PRINCIPAL AXIS SYSTEM
 AA  2.242573E-06 BB -1.060606E-06 CC -1.181966E-06

 PRINCIPAL AXES
         X             Y             Z
 A  6.746572E-01  2.719438E-01  6.862100E-01
 B -6.700254E-01  6.156631E-01  4.147588E-01
 C -3.096831E-01 -7.395982E-01  5.975708E-01

 ANGLES BETWEEN PRINCIPAL AXES AND ORIGINAL AXES (DEGREES)
         X             Y             Z
 A     47.572464     74.220030     46.669157
 B    132.069025     51.999880     65.495870
 C    108.040133    137.697198     53.303880


 POINT   ATOM  MASS NO  NUCLEAR G FACTOR
   21   21 O      17      -0.7575220

 TENSOR IN ORIGINAL CARTESIAN AXES
 XX  9.499165E-08 YY  3.511978E-07 ZZ -4.461895E-07 XY -1.231191E-07 XZ -9.337421E-08 YZ -1.973975E-07

 TENSOR IN PRINCIPAL AXIS SYSTEM
 AA  8.788990E-08 BB  4.279996E-07 CC -5.158895E-07

 PRINCIPAL AXES
         X             Y             Z
 A  9.329962E-01  2.438849E-01 -2.646474E-01
 B -2.964546E-01  9.377479E-01 -1.809519E-01
 C  2.040411E-01  2.472833E-01  9.472160E-01

 ANGLES BETWEEN PRINCIPAL AXES AND ORIGINAL AXES (DEGREES)
         X             Y             Z
 A     21.093210     75.884055    105.346004
 B    107.244782     20.323281    100.425208
 C     78.226627     75.683187     18.698976


 POINT   ATOM  MASS NO  NUCLEAR G FACTOR
   22   22 O      17      -0.7575220

 TENSOR IN ORIGINAL CARTESIAN AXES
 XX  1.723790E-07 YY  1.960835E-07 ZZ -3.684624E-07 XY -6.212047E-09 XZ -2.159536E-08 YZ -8.882019E-08

 TENSOR IN PRINCIPAL AXIS SYSTEM
 AA  1.732734E-07 BB  2.097278E-07 CC -3.830012E-07

 PRINCIPAL AXES
         X             Y             Z
 A  9.991957E-01 -6.088512E-03 -3.963421E-02
 B  0.000000E+00  9.884056E-01 -1.518365E-01
 C  4.009914E-02  1.517144E-01  9.876107E-01

 ANGLES BETWEEN PRINCIPAL AXES AND ORIGINAL AXES (DEGREES)
         X             Y             Z
 A      2.298127     90.348848     92.271468
 B     90.000000      8.733369     98.733369
 C     87.701873     81.273710      9.028408


 POINT   ATOM  MASS NO  NUCLEAR G FACTOR
   23   23 O      17      -0.7575220

 TENSOR IN ORIGINAL CARTESIAN AXES
 XX  9.882304E-08 YY -7.309233E-08 ZZ -2.573071E-08 XY -2.792926E-08 XZ  2.569470E-07 YZ -5.080831E-10

 TENSOR IN PRINCIPAL AXIS SYSTEM
 AA  3.022534E-07 BB -7.258700E-08 CC -2.296664E-07

 PRINCIPAL AXES
         X             Y             Z
 A  7.846081E-01 -5.921765E-02  6.171575E-01
 B -2.038808E-02  9.924254E-01  1.211453E-01
 C -6.196567E-01 -1.076343E-01  7.774577E-01

 ANGLES BETWEEN PRINCIPAL AXES AND ORIGINAL AXES (DEGREES)
         X             Y             Z
 A     38.315553     93.394908     51.891143
 B     91.168232      7.056552     83.041792
 C    128.291071     96.178959     38.971613


 POINT   ATOM  MASS NO  NUCLEAR G FACTOR
   24   24 O      17      -0.7575220

 TENSOR IN ORIGINAL CARTESIAN AXES
 XX  8.948046E-07 YY -2.233082E-07 ZZ -6.714963E-07 XY -5.663857E-07 XZ -1.651242E-07 YZ -7.574523E-08

 TENSOR IN PRINCIPAL AXIS SYSTEM
 AA  1.139943E-06 BB -3.972399E-07 CC -7.427030E-07

 PRINCIPAL AXES
         X             Y             Z
 A  9.205043E-01 -3.848017E-01 -6.781937E-02
 B  3.221678E-01  8.456677E-01 -4.255045E-01
 C  2.210875E-01  3.698295E-01  9.024115E-01

 ANGLES BETWEEN PRINCIPAL AXES AND ORIGINAL AXES (DEGREES)
         X             Y             Z
 A     23.000078    112.631428     93.888748
 B     71.205922     32.256457    115.182599
 C     77.227086     68.294898     25.523121


 POINT   ATOM  MASS NO  NUCLEAR G FACTOR
   25   25 O      17      -0.7575220

 TENSOR IN ORIGINAL CARTESIAN AXES
 XX  4.457852E-06 YY  1.089417E-06 ZZ -5.547269E-06 XY  8.199685E-06 XZ  4.245209E-06 YZ  2.408351E-06

 TENSOR IN PRINCIPAL AXIS SYSTEM
 AA  1.243484E-05 BB -5.215654E-06 CC -7.219189E-06

 PRINCIPAL AXES
         X             Y             Z
 A  7.558986E-01  6.012863E-01  2.589828E-01
 B -4.726021E-01  7.749061E-01 -4.197234E-01
 C -4.530613E-01  1.948725E-01  8.699196E-01

 ANGLES BETWEEN PRINCIPAL AXES AND ORIGINAL AXES (DEGREES)
         X             Y             Z
 A     40.896049     53.037925     74.990286
 B    118.203337     39.203477    114.817127
 C    116.940264     78.762722     29.550699


 POINT   ATOM  MASS NO  NUCLEAR G FACTOR
   26   26 O      17      -0.7575220

 TENSOR IN ORIGINAL CARTESIAN AXES
 XX -1.021115E-07 YY -4.128594E-07 ZZ  5.149709E-07 XY -2.100844E-06 XZ  1.332554E-06 YZ -2.746673E-06

 TENSOR IN PRINCIPAL AXIS SYSTEM
 AA  4.178293E-06 BB -3.018067E-06 CC -1.160227E-06

 PRINCIPAL AXES
         X             Y             Z
 A  4.912333E-01 -6.018655E-01  6.296410E-01
 B  3.525314E-01  7.983986E-01  4.881407E-01
 C -7.964995E-01 -1.782272E-02  6.043764E-01

 ANGLES BETWEEN PRINCIPAL AXES AND ORIGINAL AXES (DEGREES)
         X             Y             Z
 A     60.578328    127.003620     50.976356
 B     69.357777     37.022551     60.781552
 C    142.797122     91.021221     52.816019


 POINT   ATOM  MASS NO  NUCLEAR G FACTOR
   27   27 O      17      -0.7575220

 TENSOR IN ORIGINAL CARTESIAN AXES
 XX -1.579548E-07 YY  2.319532E-07 ZZ -7.399838E-08 XY  7.794371E-08 XZ  8.019100E-08 YZ  1.029313E-07

 TENSOR IN PRINCIPAL AXIS SYSTEM
 AA -2.070050E-07 BB  2.853655E-07 CC -7.836049E-08

 PRINCIPAL AXES
         X             Y             Z
 A  8.687019E-01 -3.808575E-02 -4.938690E-01
 B  2.206136E-01  9.224386E-01  3.169174E-01
 C  4.434938E-01 -3.842609E-01  8.097264E-01

 ANGLES BETWEEN PRINCIPAL AXES AND ORIGINAL AXES (DEGREES)
         X             Y             Z
 A     29.691863     92.182681    119.595195
 B     77.254925     22.714765     71.523395
 C     63.672990    112.597867     35.930793


 POINT   ATOM  MASS NO  NUCLEAR G FACTOR
   28   28 O      17      -0.7575220

 TENSOR IN ORIGINAL CARTESIAN AXES
 XX  1.303647E-07 YY  7.235079E-08 ZZ -2.027155E-07 XY  4.253492E-08 XZ -6.532858E-08 YZ  1.149116E-07

 TENSOR IN PRINCIPAL AXIS SYSTEM
 AA  1.528420E-07 BB  1.063528E-07 CC -2.591947E-07

 PRINCIPAL AXES
         X             Y             Z
 A  8.841422E-01  4.672178E-01  0.000000E+00
 B -4.296103E-01  8.129755E-01  3.930723E-01
 C  1.836504E-01 -3.475318E-01  9.195076E-01

 ANGLES BETWEEN PRINCIPAL AXES AND ORIGINAL AXES (DEGREES)
         X             Y             Z
 A     27.853851     62.146149     90.000000
 B    115.442833     35.612328     66.854199
 C     79.417543    110.336424     23.145801


 POINT   ATOM  MASS NO  NUCLEAR G FACTOR
   29   29 O      17      -0.7575220

 TENSOR IN ORIGINAL CARTESIAN AXES
 XX -1.747738E-07 YY  8.698229E-08 ZZ  8.779153E-08 XY  1.102832E-07 XZ -9.757804E-08 YZ -3.246461E-08

 TENSOR IN PRINCIPAL AXIS SYSTEM
 AA -2.358037E-07 BB  1.807093E-07 CC  5.509444E-08

 PRINCIPAL AXES
         X             Y             Z
 A  9.237955E-01 -2.905203E-01  2.493988E-01
 B  3.824425E-01  6.687833E-01 -6.375474E-01
 C  1.842675E-02  6.843441E-01  7.289263E-01

 ANGLES BETWEEN PRINCIPAL AXES AND ORIGINAL AXES (DEGREES)
         X             Y             Z
 A     22.512574    106.889111     75.558062
 B     67.514940     48.026773    129.609175
 C     88.944165     46.815954     43.203539


 POINT   ATOM  MASS NO  NUCLEAR G FACTOR
   30   30 O      17      -0.7575220

 TENSOR IN ORIGINAL CARTESIAN AXES
 XX  1.972712E-06 YY -7.719049E-07 ZZ -1.200807E-06 XY -4.065584E-07 XZ  9.221724E-07 YZ -1.660306E-07

 TENSOR IN PRINCIPAL AXIS SYSTEM
 AA  2.283363E-06 BB -8.293323E-07 CC -1.454031E-06

 PRINCIPAL AXES
         X             Y             Z
 A  9.557296E-01 -1.385945E-01  2.595620E-01
 B  1.560476E-01  9.865930E-01 -4.778429E-02
 C -2.494594E-01  8.617290E-02  9.645435E-01

 ANGLES BETWEEN PRINCIPAL AXES AND ORIGINAL AXES (DEGREES)
         X             Y             Z
 A     17.112347     97.966523     74.955924
 B     81.022440      9.392677     92.738881
 C    104.445527     85.056526     15.303016


 POINT   ATOM  MASS NO  NUCLEAR G FACTOR
   31   31 O      17      -0.7575220

 TENSOR IN ORIGINAL CARTESIAN AXES
 XX  5.059040E-07 YY -3.642663E-07 ZZ -1.416377E-07 XY  7.847474E-08 XZ  9.983327E-08 YZ  1.375432E-07

 TENSOR IN PRINCIPAL AXIS SYSTEM
 AA  5.319580E-07 BB -4.307626E-07 CC -1.011954E-07

 PRINCIPAL AXES
         X             Y             Z
 A  9.794667E-01  1.115398E-01  1.679403E-01
 B -3.103357E-02  9.064981E-01 -4.210679E-01
 C -1.992034E-01  4.072102E-01  8.913461E-01

 ANGLES BETWEEN PRINCIPAL AXES AND ORIGINAL AXES (DEGREES)
         X             Y             Z
 A     11.630904     83.595914     80.331914
 B     91.778378     24.974190    114.902025
 C    101.490380     65.970299     26.957111


 POINT   ATOM  MASS NO  NUCLEAR G FACTOR
   32   32 O      17      -0.7575220

 TENSOR IN ORIGINAL CARTESIAN AXES
 XX  3.366691E-07 YY -1.017781E-09 ZZ -3.356513E-07 XY -2.973968E-07 XZ  2.210544E-07 YZ -1.584151E-07

 TENSOR IN PRINCIPAL AXIS SYSTEM
 AA  5.890768E-07 BB -1.716604E-07 CC -4.174164E-07

 PRINCIPAL AXES
         X             Y             Z
 A  8.293931E-01 -4.828616E-01  2.809837E-01
 B  5.250489E-01  8.455545E-01 -9.675365E-02
 C -1.908684E-01  2.277770E-01  9.548230E-01

 ANGLES BETWEEN PRINCIPAL AXES AND ORIGINAL AXES (DEGREES)
         X             Y             Z
 A     33.963556    118.872462     73.681077
 B     58.328463     32.268608     95.552262
 C    101.003467     76.833771     17.288018


 POINT   ATOM  MASS NO  NUCLEAR G FACTOR
   33   33 O      17      -0.7575220

 TENSOR IN ORIGINAL CARTESIAN AXES
 XX -1.354141E-07 YY  1.386294E-07 ZZ -3.215268E-09 XY -1.067091E-07 XZ  3.925664E-07 YZ -5.538857E-07

 TENSOR IN PRINCIPAL AXIS SYSTEM
 AA -6.191698E-07 BB -1.415667E-07 CC  7.607364E-07

 PRINCIPAL AXES
         X             Y             Z
 A  4.929781E-01 -4.677220E-01 -7.336271E-01
 B  7.886261E-01  5.963650E-01  1.497251E-01
 C  3.674798E-01 -6.523687E-01  6.628527E-01

 ANGLES BETWEEN PRINCIPAL AXES AND ORIGINAL AXES (DEGREES)
         X             Y             Z
 A     60.463487    117.886526    137.191336
 B     37.942695     53.389998     81.389003
 C     68.439725    130.720432     48.482203


 POINT   ATOM  MASS NO  NUCLEAR G FACTOR
   34   34 O      17      -0.7575220

 TENSOR IN ORIGINAL CARTESIAN AXES
 XX -7.961771E-07 YY  1.307708E-06 ZZ -5.115313E-07 XY  4.619042E-07 XZ  7.578817E-08 YZ -7.388497E-07

 TENSOR IN PRINCIPAL AXIS SYSTEM
 AA -1.047136E-06 BB  1.639528E-06 CC -5.923914E-07

 PRINCIPAL AXES
         X             Y             Z
 A  7.651166E-01 -3.252153E-01 -5.557261E-01
 B  1.652763E-01  9.333507E-01 -3.186539E-01
 C  6.223185E-01  1.519590E-01  7.678725E-01

 ANGLES BETWEEN PRINCIPAL AXES AND ORIGINAL AXES (DEGREES)
         X             Y             Z
 A     40.082629    108.978621    123.760742
 B     80.486714     21.036705    108.581536
 C     51.514362     81.259528     39.836775


 POINT   ATOM  MASS NO  NUCLEAR G FACTOR
   35   35 O      17      -0.7575220

 TENSOR IN ORIGINAL CARTESIAN AXES
 XX -1.196366E-07 YY -3.069289E-07 ZZ  4.265655E-07 XY  2.361529E-07 XZ  2.099788E-07 YZ  8.902514E-07

 TENSOR IN PRINCIPAL AXIS SYSTEM
 AA -1.880853E-07 BB -9.114964E-07 CC  1.099582E-06

 PRINCIPAL AXES
         X             Y             Z
 A  9.643555E-01 -4.562710E-02 -2.606466E-01
 B -1.062032E-01  8.354626E-01 -5.391875E-01
 C  2.423620E-01  5.476499E-01  8.008372E-01

 ANGLES BETWEEN PRINCIPAL AXES AND ORIGINAL AXES (DEGREES)
         X             Y             Z
 A     15.343781     92.615148    105.108430
 B     96.096491     33.335961    122.628343
 C     75.974010     56.794065     36.789874


 POINT   ATOM  MASS NO  NUCLEAR G FACTOR
   36   36 O      17      -0.7575220

 TENSOR IN ORIGINAL CARTESIAN AXES
 XX  1.993962E-08 YY -2.973944E-07 ZZ  2.774548E-07 XY  1.376786E-07 XZ  1.091450E-07 YZ -2.503344E-07

 TENSOR IN PRINCIPAL AXIS SYSTEM
 AA  7.078371E-08 BB -4.509501E-07 CC  3.801664E-07

 PRINCIPAL AXES
         X             Y             Z
 A  9.271714E-01  3.726830E-01 -3.821823E-02
 B -3.368020E-01  8.738608E-01  3.506164E-01
 C  1.640662E-01 -3.122095E-01  9.357390E-01

 ANGLES BETWEEN PRINCIPAL AXES AND ORIGINAL AXES (DEGREES)
         X             Y             Z
 A     22.001910     68.118819     92.190276
 B    109.682151     29.089568     69.474981
 C     80.557010    108.192434     20.652129


 POINT   ATOM  MASS NO  NUCLEAR G FACTOR
   37   37 O      17      -0.7575220

 TENSOR IN ORIGINAL CARTESIAN AXES
 XX -1.500910E-07 YY -5.858747E-07 ZZ  7.359657E-07 XY -5.185573E-07 XZ -8.619062E-07 YZ  4.642282E-07

 TENSOR IN PRINCIPAL AXIS SYSTEM
 AA -5.388251E-07 BB -9.401966E-07 CC  1.479022E-06

 PRINCIPAL AXES
         X             Y             Z
 A  5.801522E-01 -5.515725E-01  5.993256E-01
 B  6.247109E-01  7.734738E-01  1.071195E-01
 C -5.226468E-01  3.122596E-01  7.933059E-01

 ANGLES BETWEEN PRINCIPAL AXES AND ORIGINAL AXES (DEGREES)
         X             Y             Z
 A     54.538749    123.474958     53.178386
 B     51.339030     39.333133     83.850708
 C    121.509963     71.804541     37.504466


 POINT   ATOM  MASS NO  NUCLEAR G FACTOR
   38   38 O      17      -0.7575220

 TENSOR IN ORIGINAL CARTESIAN AXES
 XX -5.671939E-07 YY  7.592210E-08 ZZ  4.912718E-07 XY -2.290330E-07 XZ  5.997315E-08 YZ  2.142333E-07

 TENSOR IN PRINCIPAL AXIS SYSTEM
 AA -6.540054E-07 BB  7.094234E-08 CC  5.830631E-07

 PRINCIPAL AXES
         X             Y             Z
 A  9.386058E-01  3.268847E-01 -1.102975E-01
 B -3.435013E-01  8.558178E-01 -3.867594E-01
 C -3.203116E-02  4.009019E-01  9.155608E-01

 ANGLES BETWEEN PRINCIPAL AXES AND ORIGINAL AXES (DEGREES)
         X             Y             Z
 A     20.181275     70.920204     96.332464
 B    110.090334     31.149803    112.753008
 C     91.835564     66.365426     23.714500


 POINT   ATOM  MASS NO  NUCLEAR G FACTOR
   39   39 O      17      -0.7575220

 TENSOR IN ORIGINAL CARTESIAN AXES
 XX  3.727048E-07 YY  6.538307E-07 ZZ -1.026535E-06 XY  1.152614E-07 XZ  4.089621E-07 YZ -4.129514E-08

 TENSOR IN PRINCIPAL AXIS SYSTEM
 AA  4.374853E-07 BB  7.025519E-07 CC -1.140037E-06

 PRINCIPAL AXES
         X             Y             Z
 A  8.710812E-01 -4.196202E-01  2.552184E-01
 B  4.144388E-01  9.068559E-01  7.650378E-02
 C -2.635489E-01  3.913141E-02  9.638520E-01

 ANGLES BETWEEN PRINCIPAL AXES AND ORIGINAL AXES (DEGREES)
         X             Y             Z
 A     29.415473    114.810609     75.213472
 B     65.516020     24.925585     85.612369
 C    105.280744     87.757363     15.452423


 POINT   ATOM  MASS NO  NUCLEAR G FACTOR
   40   40 O      17      -0.7575220

 TENSOR IN ORIGINAL CARTESIAN AXES
 XX  1.562875E-05 YY  9.390357E-08 ZZ -1.572265E-05 XY -3.118318E-06 XZ  5.740226E-06 YZ  2.412501E-05

 TENSOR IN PRINCIPAL AXIS SYSTEM
 AA  1.602314E-05 BB  1.802435E-05 CC -3.404748E-05

 PRINCIPAL AXES
         X             Y             Z
 A  8.727682E-01 -4.515736E-01 -1.853561E-01
 B  4.706866E-01  6.779207E-01  5.646925E-01
 C -1.293435E-01 -5.800903E-01  8.042173E-01

 ANGLES BETWEEN PRINCIPAL AXES AND ORIGINAL AXES (DEGREES)
         X             Y             Z
 A     29.218064    116.844690    100.681897
 B     61.921124     47.318627     55.619060
 C     97.431655    125.456895     36.465265


 POINT   ATOM  MASS NO  NUCLEAR G FACTOR
   41   41 O      17      -0.7575220

 TENSOR IN ORIGINAL CARTESIAN AXES
 XX -2.833129E-07 YY -5.873219E-07 ZZ  8.706348E-07 XY -8.906548E-07 XZ -1.904332E-06 YZ -1.038599E-06

 TENSOR IN PRINCIPAL AXIS SYSTEM
 AA  2.714963E-07 BB -2.592322E-06 CC  2.320826E-06

 PRINCIPAL AXES
         X             Y             Z
 A  5.216056E-01 -8.211843E-01  2.314821E-01
 B  6.456055E-01  5.572691E-01  5.221538E-01
 C -5.577823E-01 -1.229122E-01  8.208358E-01

 ANGLES BETWEEN PRINCIPAL AXES AND ORIGINAL AXES (DEGREES)
         X             Y             Z
 A     58.559987    145.203524     76.615658
 B     49.788909     56.132849     58.523164
 C    123.902569     97.060207     34.831449


 POINT   ATOM  MASS NO  NUCLEAR G FACTOR
   42   42 O      17      -0.7575220

 TENSOR IN ORIGINAL CARTESIAN AXES
 XX -1.319194E-07 YY -1.267813E-07 ZZ  2.587007E-07 XY -4.570271E-08 XZ -4.594228E-08 YZ -1.830209E-08

 TENSOR IN PRINCIPAL AXIS SYSTEM
 AA -1.799405E-07 BB -8.452327E-08 CC  2.644638E-07

 PRINCIPAL AXES
         X             Y             Z
 A  7.227225E-01  6.832376E-01  1.042041E-01
 B -6.820979E-01  7.294218E-01 -5.182962E-02
 C -1.114207E-01 -3.361895E-02  9.932045E-01

 ANGLES BETWEEN PRINCIPAL AXES AND ORIGINAL AXES (DEGREES)
         X             Y             Z
 A     43.720282     46.902837     84.018688
 B    133.007800     43.162059     92.970949
 C     96.397217     91.926587      6.683350


 POINT   ATOM  MASS NO  NUCLEAR G FACTOR
   43   43 O      17      -0.7575220

 TENSOR IN ORIGINAL CARTESIAN AXES
 XX -1.109942E-07 YY -6.228281E-07 ZZ  7.338223E-07 XY -5.900032E-07 XZ -6.234751E-08 YZ -1.320906E-07

 TENSOR IN PRINCIPAL AXIS SYSTEM
 AA  2.753299E-07 BB -1.021942E-06 CC  7.466122E-07

 PRINCIPAL AXES
         X             Y             Z
 A  8.372066E-01 -5.451995E-01 -4.292532E-02
 B  5.468127E-01  8.332197E-01  8.210263E-02
 C -8.996093E-03 -9.220897E-02  9.956990E-01

 ANGLES BETWEEN PRINCIPAL AXES AND ORIGINAL AXES (DEGREES)
         X             Y             Z
 A     33.153689    123.038297     92.460195
 B     56.851375     33.569089     85.290565
 C     90.515445     95.290701      5.315892


 POINT   ATOM  MASS NO  NUCLEAR G FACTOR
   44   44 O      17      -0.7575220

 TENSOR IN ORIGINAL CARTESIAN AXES
 XX  4.123996E-07 YY  6.038264E-07 ZZ -1.016226E-06 XY -9.827340E-07 XZ  6.478618E-07 YZ -1.594555E-07

 TENSOR IN PRINCIPAL AXIS SYSTEM
 AA -3.189334E-07 BB  1.614903E-06 CC -1.295969E-06

 PRINCIPAL AXES
         X             Y             Z
 A  5.950648E-01  7.013601E-01  3.924181E-01
 B -6.832575E-01  6.985825E-01 -2.124657E-01
 C -4.231514E-01 -1.416918E-01  8.949113E-01

 ANGLES BETWEEN PRINCIPAL AXES AND ORIGINAL AXES (DEGREES)
         X             Y             Z
 A     53.482752     45.463776     66.894953
 B    133.098723     45.686612    102.266890
 C    115.033711     98.145753     26.502955


 POINT   ATOM  MASS NO  NUCLEAR G FACTOR
   45   45 O      17      -0.7575220

 TENSOR IN ORIGINAL CARTESIAN AXES
 XX -8.223688E-09 YY -7.767948E-07 ZZ  7.850185E-07 XY  7.213725E-07 XZ  1.576174E-06 YZ -8.173513E-07

 TENSOR IN PRINCIPAL AXIS SYSTEM
 AA  7.642647E-08 BB -2.106606E-06 CC  2.030180E-06

 PRINCIPAL AXES
         X             Y             Z
 A  5.464994E-01  7.723249E-01 -3.238096E-01
 B -5.931509E-01  6.299220E-01  5.013684E-01
 C  5.911941E-01 -8.192963E-02  8.023572E-01

 ANGLES BETWEEN PRINCIPAL AXES AND ORIGINAL AXES (DEGREES)
         X             Y             Z
 A     56.872813     39.436874    108.893468
 B    126.380923     50.955630     59.909424
 C     53.758208     94.699489     36.644209


 POINT   ATOM  MASS NO  NUCLEAR G FACTOR
   46   46 O      17      -0.7575220

 TENSOR IN ORIGINAL CARTESIAN AXES
 XX -1.475345E-07 YY -9.625520E-07 ZZ  1.110086E-06 XY  2.879395E-07 XZ -3.872279E-07 YZ  8.318844E-07

 TENSOR IN PRINCIPAL AXIS SYSTEM
 AA -6.291150E-08 BB -1.387061E-06 CC  1.449972E-06

 PRINCIPAL AXES
         X             Y             Z
 A  9.339828E-01  3.525406E-01  5.823388E-02
 B -3.130317E-01  8.858721E-01 -3.424060E-01
 C -1.722998E-01  3.015723E-01  9.377457E-01

 ANGLES BETWEEN PRINCIPAL AXES AND ORIGINAL AXES (DEGREES)
         X             Y             Z
 A     20.935568     69.357212     86.661556
 B    108.242030     27.640971    110.023527
 C     99.921560     72.447939     20.323645


 POINT   ATOM  MASS NO  NUCLEAR G FACTOR
   47   47 O      17      -0.7575220

 TENSOR IN ORIGINAL CARTESIAN AXES
 XX -1.159678E-07 YY  1.764250E-07 ZZ -6.045727E-08 XY -5.620784E-08 XZ -2.281268E-07 YZ -1.318971E-07

 TENSOR IN PRINCIPAL AXIS SYSTEM
 AA -3.503431E-07 BB  2.434172E-07 CC  1.069258E-07

 PRINCIPAL AXES
         X             Y             Z
 A  7.059369E-01  2.419910E-01  6.656527E-01
 B  1.903382E-01  8.404337E-01 -5.073880E-01
 C -6.822203E-01  4.848830E-01  5.472330E-01

 ANGLES BETWEEN PRINCIPAL AXES AND ORIGINAL AXES (DEGREES)
         X             Y             Z
 A     45.094718     75.995918     48.267584
 B     79.027480     32.814052    120.489999
 C    133.017389     60.995194     56.822607


 POINT   ATOM  MASS NO  NUCLEAR G FACTOR
   48   48 O      17      -0.7575220

 TENSOR IN ORIGINAL CARTESIAN AXES
 XX -9.640384E-08 YY -2.864622E-07 ZZ  3.828660E-07 XY  8.722860E-08 XZ -1.164415E-07 YZ  1.060504E-07

 TENSOR IN PRINCIPAL AXIS SYSTEM
 AA -7.158267E-08 BB -3.482994E-07 CC  4.198821E-07

 PRINCIPAL AXES
         X             Y             Z
 A  8.931800E-01  4.282023E-01  1.373762E-01
 B -3.996677E-01  8.958974E-01 -1.939940E-01
 C -2.061436E-01  1.183667E-01  9.713363E-01

 ANGLES BETWEEN PRINCIPAL AXES AND ORIGINAL AXES (DEGREES)
         X             Y             Z
 A     26.724391     64.646472     82.103955
 B    113.557404     26.376072    101.185961
 C    101.896454     83.202148     13.751402


 POINT   ATOM  MASS NO  NUCLEAR G FACTOR
   49   49 O      17      -0.7575220

 TENSOR IN ORIGINAL CARTESIAN AXES
 XX -9.702359E-07 YY  2.672175E-07 ZZ  7.030185E-07 XY  4.248089E-08 XZ -4.973942E-08 YZ -3.456717E-07

 TENSOR IN PRINCIPAL AXIS SYSTEM
 AA -9.726008E-07 BB  7.666395E-08 CC  8.959369E-07

 PRINCIPAL AXES
         X             Y             Z
 A  9.993325E-01 -2.755660E-02  2.398256E-02
 B  1.253489E-02  8.752975E-01  4.834223E-01
 C -3.431335E-02 -4.827990E-01  8.750587E-01

 ANGLES BETWEEN PRINCIPAL AXES AND ORIGINAL AXES (DEGREES)
         X             Y             Z
 A      2.093550     91.579077     88.625769
 B     89.281785     28.919793     61.090843
 C     91.966396    118.868369     28.948077


 POINT   ATOM  MASS NO  NUCLEAR G FACTOR
   50   50 O      17      -0.7575220

 TENSOR IN ORIGINAL CARTESIAN AXES
 XX -2.237479E-07 YY -1.534637E-07 ZZ  3.772116E-07 XY  4.274325E-09 XZ  1.582398E-08 YZ -4.227842E-08

 TENSOR IN PRINCIPAL AXIS SYSTEM
 AA -2.241643E-07 BB -1.567883E-07 CC  3.809526E-07

 PRINCIPAL AXES
         X             Y             Z
 A  9.996540E-01  0.000000E+00 -2.630387E-02
 B  2.068258E-03  9.969039E-01  7.860224E-02
 C  2.622243E-02 -7.862945E-02  9.965590E-01

 ANGLES BETWEEN PRINCIPAL AXES AND ORIGINAL AXES (DEGREES)
         X             Y             Z
 A      1.507274     90.000000     91.507274
 B     89.881497      4.509791     85.491773
 C     88.497393     94.509791      4.754513


 POINT   ATOM  MASS NO  NUCLEAR G FACTOR
   51   51 O      17      -0.7575220

 TENSOR IN ORIGINAL CARTESIAN AXES
 XX  7.939658E-07 YY -1.271396E-06 ZZ  4.774300E-07 XY -4.807886E-07 XZ  7.728998E-08 YZ -2.608322E-07

 TENSOR IN PRINCIPAL AXIS SYSTEM
 AA  9.400678E-07 BB -1.407986E-06 CC  4.679178E-07

 PRINCIPAL AXES
         X             Y             Z
 A  9.281422E-01 -2.357593E-01  2.880444E-01
 B  2.074148E-01  9.701425E-01  1.257088E-01
 C -3.090812E-01 -5.693092E-02  9.493301E-01

 ANGLES BETWEEN PRINCIPAL AXES AND ORIGINAL AXES (DEGREES)
         X             Y             Z
 A     21.852956    103.636388     73.259084
 B     78.029103     14.036252     82.778312
 C    108.003866     93.263666     18.317389


 POINT   ATOM  MASS NO  NUCLEAR G FACTOR
   52   52 O      17      -0.7575220

 TENSOR IN ORIGINAL CARTESIAN AXES
 XX  2.722538E-07 YY -2.374833E-07 ZZ -3.477052E-08 XY -2.596902E-07 XZ  1.643543E-07 YZ  2.839324E-07

 TENSOR IN PRINCIPAL AXIS SYSTEM
 AA  3.874934E-07 BB -5.519639E-07 CC  1.644705E-07

 PRINCIPAL AXES
         X             Y             Z
 A  9.352565E-01 -3.215567E-01  1.479751E-01
 B  3.493083E-01  7.707930E-01 -5.327869E-01
 C  5.726304E-02  5.499813E-01  8.332116E-01

 ANGLES BETWEEN PRINCIPAL AXES AND ORIGINAL AXES (DEGREES)
         X             Y             Z
 A     20.730382    108.757095     81.490402
 B     69.554986     39.574847    122.193947
 C     86.717274     56.634270     33.569929


 POINT   ATOM  MASS NO  NUCLEAR G FACTOR
   53   53 O      17      -0.7575220

 TENSOR IN ORIGINAL CARTESIAN AXES
 XX -5.274270E-07 YY  1.198326E-07 ZZ  4.075943E-07 XY  1.061693E-07 XZ -4.749500E-07 YZ -8.584435E-07

 TENSOR IN PRINCIPAL AXIS SYSTEM
 AA -8.400145E-07 BB -4.008923E-07 CC  1.240907E-06

 PRINCIPAL AXES
         X             Y             Z
 A  7.038150E-01  4.304894E-01  5.650869E-01
 B -6.685267E-01  6.703955E-01  3.219345E-01
 C -2.402424E-01 -6.043581E-01  7.596282E-01

 ANGLES BETWEEN PRINCIPAL AXES AND ORIGINAL AXES (DEGREES)
         X             Y             Z
 A     45.266108     64.501376     55.591671
 B    131.953459     47.902400     71.220044
 C    103.900845    127.182663     40.568572


 POINT   ATOM  MASS NO  NUCLEAR G FACTOR
   54   54 O      17      -0.7575220

 TENSOR IN ORIGINAL CARTESIAN AXES
 XX -8.914428E-08 YY -1.031472E-07 ZZ  1.922915E-07 XY -7.800550E-08 XZ -4.163046E-07 YZ  1.403491E-07

 TENSOR IN PRINCIPAL AXIS SYSTEM
 AA -3.891718E-07 BB -1.419583E-07 CC  5.311301E-07

 PRINCIPAL AXES
         X             Y             Z
 A  8.000132E-01 -7.036511E-02  5.958420E-01
 B  2.007600E-01  9.672482E-01 -1.553266E-01
 C -5.653975E-01  2.438846E-01  7.879378E-01

 ANGLES BETWEEN PRINCIPAL AXES AND ORIGINAL AXES (DEGREES)
         X             Y             Z
 A     36.868641     94.034958     53.427319
 B     78.418594     14.704417     98.935740
 C    124.429901     75.884074     38.006791


 POINT   ATOM  MASS NO  NUCLEAR G FACTOR
   55   55 O      17      -0.7575220

 TENSOR IN ORIGINAL CARTESIAN AXES
 XX -3.782440E-07 YY  4.243283E-08 ZZ  3.358111E-07 XY -1.625209E-07 XZ -4.063967E-08 YZ  4.575332E-08

 TENSOR IN PRINCIPAL AXIS SYSTEM
 AA -4.343980E-07 BB  8.519961E-08 CC  3.491983E-07

 PRINCIPAL AXES
         X             Y             Z
 A  9.438856E-01  3.290167E-01  2.877584E-02
 B -3.151358E-01  9.232756E-01 -2.196624E-01
 C -9.884064E-02  1.982679E-01  9.751515E-01

 ANGLES BETWEEN PRINCIPAL AXES AND ORIGINAL AXES (DEGREES)
         X             Y             Z
 A     19.285328     70.790895     88.351038
 B    108.369013     22.590250    102.689207
 C     95.672414     78.564311     12.799456


 POINT   ATOM  MASS NO  NUCLEAR G FACTOR
   56   56 O      17      -0.7575220

 TENSOR IN ORIGINAL CARTESIAN AXES
 XX -3.593865E-07 YY  5.215670E-07 ZZ -1.621805E-07 XY  8.929849E-08 XZ  7.631420E-08 YZ  1.233602E-07

 TENSOR IN PRINCIPAL AXIS SYSTEM
 AA -3.877005E-07 BB  5.543902E-07 CC -1.666898E-07

 PRINCIPAL AXES
         X             Y             Z
 A  9.620018E-01 -5.973642E-02 -2.664283E-01
 B  1.106380E-01  9.773605E-01  1.803486E-01
 C  2.496231E-01 -2.029728E-01  9.468317E-01

 ANGLES BETWEEN PRINCIPAL AXES AND ORIGINAL AXES (DEGREES)
         X             Y             Z
 A     15.845424     93.424684    105.451840
 B     83.647902     12.215004     79.609932
 C     75.544788    101.710857     18.767532


 POINT   ATOM  MASS NO  NUCLEAR G FACTOR
   57   57 O      17      -0.7575220

 TENSOR IN ORIGINAL CARTESIAN AXES
 XX -1.275239E-07 YY -1.509613E-06 ZZ  1.637136E-06 XY  1.567095E-06 XZ -9.039937E-08 YZ  1.087202E-07

 TENSOR IN PRINCIPAL AXIS SYSTEM
 AA  8.937709E-07 BB -2.535991E-06 CC  1.642220E-06

 PRINCIPAL AXES
         X             Y             Z
 A  8.370992E-01  5.466155E-01  2.182858E-02
 B -5.458213E-01  8.372262E-01 -3.363551E-02
 C -3.666115E-02  1.624175E-02  9.991958E-01

 ANGLES BETWEEN PRINCIPAL AXES AND ORIGINAL AXES (DEGREES)
         X             Y             Z
 A     33.164944     56.864871     88.749215
 B    123.080808     33.151637     91.927536
 C     92.101000     89.069375      2.298052


 POINT   ATOM  MASS NO  NUCLEAR G FACTOR
   58   58 O      17      -0.7575220

 TENSOR IN ORIGINAL CARTESIAN AXES
 XX -2.510156E-07 YY -2.753723E-07 ZZ  5.263879E-07 XY -1.605951E-07 XZ -1.172810E-07 YZ -6.831949E-09

 TENSOR IN PRINCIPAL AXIS SYSTEM
 AA -1.121435E-07 BB -4.319045E-07 CC  5.440479E-07

 PRINCIPAL AXES
         X             Y             Z
 A  7.047363E-01 -6.986556E-01  1.233982E-01
 B  6.931923E-01  7.151157E-01  8.996677E-02
 C -1.510997E-01  2.213580E-02  9.882706E-01

 ANGLES BETWEEN PRINCIPAL AXES AND ORIGINAL AXES (DEGREES)
         X             Y             Z
 A     45.191752    134.319238     82.911739
 B     46.116659     44.347320     84.838305
 C     98.690663     88.731608      8.784156


 POINT   ATOM  MASS NO  NUCLEAR G FACTOR
   59   59 O      17      -0.7575220

 TENSOR IN ORIGINAL CARTESIAN AXES
 XX -8.319945E-06 YY -1.643453E-06 ZZ  9.963398E-06 XY -1.292724E-05 XZ  5.276974E-08 YZ -7.644695E-07

 TENSOR IN PRINCIPAL AXIS SYSTEM
 AA -1.833943E-05 BB  8.147245E-06 CC  1.019219E-05

 PRINCIPAL AXES
         X             Y             Z
 A  7.904896E-01  6.122902E-01  1.506433E-02
 B -5.820352E-01  7.433171E-01  3.297192E-01
 C  1.906862E-01 -2.694076E-01  9.439589E-01

 ANGLES BETWEEN PRINCIPAL AXES AND ORIGINAL AXES (DEGREES)
         X             Y             Z
 A     37.768709     52.244719     89.136845
 B    125.593812     41.985245     70.748267
 C     79.007165    105.629017     19.272608


 POINT   ATOM  MASS NO  NUCLEAR G FACTOR
   60   60 O      17      -0.7575220

 TENSOR IN ORIGINAL CARTESIAN AXES
 XX -4.615306E-07 YY  2.348770E-07 ZZ  2.266536E-07 XY -3.304749E-08 XZ -3.748604E-07 YZ -1.938613E-07

 TENSOR IN PRINCIPAL AXIS SYSTEM
 AA -6.400861E-07 BB  1.421664E-07 CC  4.979197E-07

 PRINCIPAL AXES
         X             Y             Z
 A  8.997029E-01  1.268528E-01  4.176638E-01
 B -3.215313E-01  8.397275E-01  4.375790E-01
 C -2.952157E-01 -5.279831E-01  7.962924E-01

 ANGLES BETWEEN PRINCIPAL AXES AND ORIGINAL AXES (DEGREES)
         X             Y             Z
 A     25.880956     82.712236     65.312819
 B    108.755557     32.888645     64.050489
 C    107.170470    121.869279     37.222502


 POINT   ATOM  MASS NO  NUCLEAR G FACTOR
   61   61 O      17      -0.7575220

 TENSOR IN ORIGINAL CARTESIAN AXES
 XX  1.214827E-05 YY  8.431565E-06 ZZ -2.057984E-05 XY  2.301489E-06 XZ  4.632949E-06 YZ -1.294862E-05

 TENSOR IN PRINCIPAL AXIS SYSTEM
 AA  1.254325E-05 BB  1.366650E-05 CC -2.620975E-05

 PRINCIPAL AXES
         X             Y             Z
 A  8.504907E-01 -4.385562E-01  2.904034E-01
 B  5.088813E-01  8.257195E-01 -2.433662E-01
 C -1.330620E-01  3.547615E-01  9.254398E-01

 ANGLES BETWEEN PRINCIPAL AXES AND ORIGINAL AXES (DEGREES)
         X             Y             Z
 A     31.734924    116.011795     73.117891
 B     59.410660     34.338491    104.085301
 C     97.646571     69.221170     22.265239


 POINT   ATOM  MASS NO  NUCLEAR G FACTOR
   62   62 O      17      -0.7575220

 TENSOR IN ORIGINAL CARTESIAN AXES
 XX  3.739218E-07 YY -7.841386E-07 ZZ  4.102168E-07 XY -6.857481E-07 XZ  4.695807E-07 YZ  2.283593E-07

 TENSOR IN PRINCIPAL AXIS SYSTEM
 AA  9.363069E-07 BB -1.207651E-06 CC  2.713441E-07

 PRINCIPAL AXES
         X             Y             Z
 A  7.735944E-01 -2.297429E-01  5.905675E-01
 B  4.482957E-01  8.570972E-01 -2.538018E-01
 C -4.478646E-01  4.610885E-01  7.660383E-01

 ANGLES BETWEEN PRINCIPAL AXES AND ORIGINAL AXES (DEGREES)
         X             Y             Z
 A     39.322235    103.281933     53.802709
 B     63.365608     31.007797    104.702596
 C    116.606763     62.542631     40.000548


 POINT   ATOM  MASS NO  NUCLEAR G FACTOR
   63   63 O      17      -0.7575220

 TENSOR IN ORIGINAL CARTESIAN AXES
 XX  6.446544E-07 YY  4.738360E-07 ZZ -1.118490E-06 XY  7.813103E-07 XZ -1.187766E-06 YZ -4.998100E-07

 TENSOR IN PRINCIPAL AXIS SYSTEM
 AA  1.858223E-06 BB -1.373725E-07 CC -1.720850E-06

 PRINCIPAL AXES
         X             Y             Z
 A  7.362106E-01  5.551906E-01 -3.869849E-01
 B -5.193280E-01  8.301240E-01  2.029595E-01
 C  4.339267E-01  5.155110E-02  8.994721E-01

 ANGLES BETWEEN PRINCIPAL AXES AND ORIGINAL AXES (DEGREES)
         X             Y             Z
 A     42.590389     56.276154    112.767018
 B    121.287186     33.888523     78.289921
 C     64.282985     87.045029     25.911230


 POINT   ATOM  MASS NO  NUCLEAR G FACTOR
   64   64 O      17      -0.7575220

 TENSOR IN ORIGINAL CARTESIAN AXES
 XX -1.338225E-07 YY -6.785035E-07 ZZ  8.123260E-07 XY  3.579021E-07 XZ  1.506397E-07 YZ -1.550027E-08

 TENSOR IN PRINCIPAL AXIS SYSTEM
 AA  2.298355E-08 BB -8.598458E-07 CC  8.368622E-07

 PRINCIPAL AXES
         X             Y             Z
 A  8.779258E-01  4.514701E-01 -1.594400E-01
 B -4.497540E-01  8.918189E-01  4.878868E-02
 C  1.642182E-01  2.887596E-02  9.860013E-01

 ANGLES BETWEEN PRINCIPAL AXES AND ORIGINAL AXES (DEGREES)
         X             Y             Z
 A     28.606846     63.161959     99.174394
 B    116.727905     26.897293     87.203505
 C     80.548176     88.345300      9.598195


 POINT   ATOM  MASS NO  NUCLEAR G FACTOR
   65   65 O      17      -0.7575220

 TENSOR IN ORIGINAL CARTESIAN AXES
 XX  1.330914E-06 YY -3.229648E-06 ZZ  1.898734E-06 XY  3.458850E-07 XZ  2.720544E-07 YZ  3.157175E-07

 TENSOR IN PRINCIPAL AXIS SYSTEM
 AA  1.230463E-06 BB -3.272549E-06 CC  2.042086E-06

 PRINCIPAL AXES
         X             Y             Z
 A  9.151081E-01  4.269495E-02 -4.009418E-01
 B -7.146220E-02  9.958096E-01 -5.706464E-02
 C  3.968253E-01  8.087250E-02  9.143245E-01

 ANGLES BETWEEN PRINCIPAL AXES AND ORIGINAL AXES (DEGREES)
         X             Y             Z
 A     23.778915     87.553016    113.637065
 B     94.097976      5.247067     93.271340
 C     66.620139     85.361281     23.890018


 POINT   ATOM  MASS NO  NUCLEAR G FACTOR
   66   66 O      17      -0.7575220

 TENSOR IN ORIGINAL CARTESIAN AXES
 XX -1.197033E-05 YY  2.225920E-05 ZZ -1.028888E-05 XY  2.333626E-06 XZ -1.762209E-06 YZ -7.470757E-06

 TENSOR IN PRINCIPAL AXIS SYSTEM
 AA -1.327002E-05 BB  2.408792E-05 CC -1.081790E-05

 PRINCIPAL AXES
         X             Y             Z
 A  7.393080E-01  9.171637E-02  6.670921E-01
 B  7.354601E-02  9.737555E-01 -2.153863E-01
 C -6.693390E-01  2.082987E-01  7.131598E-01

 ANGLES BETWEEN PRINCIPAL AXES AND ORIGINAL AXES (DEGREES)
         X             Y             Z
 A     42.327501     84.737644     48.156976
 B     85.782316     13.155621    102.438190
 C    132.016069     77.977327     44.507408


 POINT   ATOM  MASS NO  NUCLEAR G FACTOR
   67   67 O      17      -0.7575220

 TENSOR IN ORIGINAL CARTESIAN AXES
 XX -3.498816E-08 YY  3.087314E-09 ZZ  3.190084E-08 XY -4.585290E-08 XZ -1.696863E-07 YZ  1.195584E-07

 TENSOR IN PRINCIPAL AXIS SYSTEM
 AA -1.856276E-07 BB -5.017378E-08 CC  2.358014E-07

 PRINCIPAL AXES
         X             Y             Z
 A  6.839648E-01 -2.653426E-01  6.795479E-01
 B  4.973056E-01  8.511137E-01 -1.682041E-01
 C -5.337408E-01  4.529887E-01  7.140882E-01

 ANGLES BETWEEN PRINCIPAL AXES AND ORIGINAL AXES (DEGREES)
         X             Y             Z
 A     46.845747    105.387314     47.191675
 B     60.178102     31.666992     99.683421
 C    122.258556     63.064402     44.431474


 POINT   ATOM  MASS NO  NUCLEAR G FACTOR
   68   68 O      17      -0.7575220

 TENSOR IN ORIGINAL CARTESIAN AXES
 XX -6.671431E-07 YY  3.465537E-07 ZZ  3.205894E-07 XY -5.214423E-08 XZ  8.769129E-08 YZ -7.142442E-07

 TENSOR IN PRINCIPAL AXIS SYSTEM
 AA -6.750935E-07 BB  1.053589E-06 CC -3.784953E-07

 PRINCIPAL AXES
         X             Y             Z
 A  9.944903E-01 -2.095747E-02 -1.027120E-01
 B -5.723405E-02  7.123334E-01 -6.995036E-01
 C  8.782501E-02  7.015282E-01  7.072092E-01

 ANGLES BETWEEN PRINCIPAL AXES AND ORIGINAL AXES (DEGREES)
         X             Y             Z
 A      6.017273     91.200862     95.895360
 B     93.281062     44.574912    134.387195
 C     84.961506     45.450257     44.991698


 POINT   ATOM  MASS NO  NUCLEAR G FACTOR
   69   69 O      17      -0.7575220

 TENSOR IN ORIGINAL CARTESIAN AXES
 XX -8.806557E-07 YY -1.066037E-05 ZZ  1.154103E-05 XY  1.942804E-05 XZ  7.858278E-06 YZ -7.764273E-06

 TENSOR IN PRINCIPAL AXIS SYSTEM
 AA  1.301174E-05 BB -2.878396E-05 CC  1.577222E-05

 PRINCIPAL AXES
         X             Y             Z
 A  4.702279E-01  5.986079E-01 -6.485016E-01
 B -6.000615E-01  7.556806E-01  2.624369E-01
 C  6.471569E-01  2.657356E-01  7.145436E-01

 ANGLES BETWEEN PRINCIPAL AXES AND ORIGINAL AXES (DEGREES)
         X             Y             Z
 A     61.950911     53.229737    130.428723
 B    126.874299     40.915129     74.785290
 C     49.672417     74.589330     44.394192


 POINT   ATOM  MASS NO  NUCLEAR G FACTOR
   70   70 O      17      -0.7575220

 TENSOR IN ORIGINAL CARTESIAN AXES
 XX  3.857541E-07 YY -6.821216E-07 ZZ  2.963676E-07 XY  3.352475E-07 XZ  4.058078E-08 YZ -4.118312E-07

 TENSOR IN PRINCIPAL AXIS SYSTEM
 AA  5.331179E-07 BB -9.157470E-07 CC  3.826291E-07

 PRINCIPAL AXES
         X             Y             Z
 A  7.361020E-01  3.900160E-01 -5.532100E-01
 B -2.458384E-01  9.155421E-01  3.183492E-01
 C  6.306483E-01 -9.833724E-02  7.698133E-01

 ANGLES BETWEEN PRINCIPAL AXES AND ORIGINAL AXES (DEGREES)
         X             Y             Z
 A     42.599583     67.044503    123.587514
 B    104.231384     23.717174     71.436879
 C     50.902028     95.643429     39.662877


 POINT   ATOM  MASS NO  NUCLEAR G FACTOR
   71   71 O      17      -0.7575220

 TENSOR IN ORIGINAL CARTESIAN AXES
 XX -1.823705E-07 YY -3.005023E-08 ZZ  2.124208E-07 XY -2.867313E-08 XZ  3.486210E-08 YZ  2.855184E-08

 TENSOR IN PRINCIPAL AXIS SYSTEM
 AA -1.914353E-07 BB -2.677696E-08 CC  2.182122E-07

 PRINCIPAL AXES
         X             Y             Z
 A  9.791858E-01  1.782182E-01 -9.712603E-02
 B -1.868676E-01  9.783734E-01 -8.869018E-02
 C  7.921932E-02  1.049939E-01  9.913126E-01

 ANGLES BETWEEN PRINCIPAL AXES AND ORIGINAL AXES (DEGREES)
         X             Y             Z
 A     11.710457     79.734006     95.573698
 B    100.770037     11.937609     95.088259
 C     85.456307     83.973187      7.557854


 POINT   ATOM  MASS NO  NUCLEAR G FACTOR
   72   72 O      17      -0.7575220

 TENSOR IN ORIGINAL CARTESIAN AXES
 XX -4.114957E-06 YY  4.797739E-06 ZZ -6.827822E-07 XY  2.095358E-07 XZ -5.855782E-06 YZ -2.035877E-07

 TENSOR IN PRINCIPAL AXIS SYSTEM
 AA -8.501087E-06 BB  4.869302E-06 CC  3.631785E-06

 PRINCIPAL AXES
         X             Y             Z
 A  8.004285E-01 -3.435211E-03  5.994184E-01
 B  1.466734E-01  9.707081E-01 -1.902961E-01
 C -5.812066E-01  2.402372E-01  7.774863E-01

 ANGLES BETWEEN PRINCIPAL AXES AND ORIGINAL AXES (DEGREES)
         X             Y             Z
 A     36.828959     90.196823     53.171745
 B     81.565805     13.901989    100.970066
 C    125.535454     76.099460     38.969002


 POINT   ATOM  MASS NO  NUCLEAR G FACTOR
   73   73 SI     29      -1.1106000

 TENSOR IN ORIGINAL CARTESIAN AXES
 XX -2.315283E-08 YY  1.018696E-07 ZZ -7.871680E-08 XY -4.215863E-08 XZ -1.300422E-07 YZ -7.981348E-08

 TENSOR IN PRINCIPAL AXIS SYSTEM
 AA  7.659877E-08 BB  1.326131E-07 CC -2.092119E-07

 PRINCIPAL AXES
         X             Y             Z
 A  7.996257E-01 -3.200098E-01 -5.081264E-01
 B  1.029519E-01  9.067022E-01 -4.090135E-01
 C  5.916077E-01  2.747451E-01  7.579680E-01

 ANGLES BETWEEN PRINCIPAL AXES AND ORIGINAL AXES (DEGREES)
         X             Y             Z
 A     36.905628    108.663519    120.539114
 B     84.090819     24.946478    114.142882
 C     53.728821     74.053173     40.714616


 POINT   ATOM  MASS NO  NUCLEAR G FACTOR
   74   74 SI     29      -1.1106000

 TENSOR IN ORIGINAL CARTESIAN AXES
 XX -1.189081E-07 YY  4.280431E-09 ZZ  1.146277E-07 XY  1.612019E-07 XZ -2.946182E-07 YZ -2.006482E-07

 TENSOR IN PRINCIPAL AXIS SYSTEM
 AA -3.209230E-07 BB -1.386077E-07 CC  4.595307E-07

 PRINCIPAL AXES
         X             Y             Z
 A  8.410249E-01 -7.888639E-02  5.352141E-01
 B -2.067332E-01  8.673664E-01  4.526996E-01
 C -4.999386E-01 -4.913781E-01  7.131683E-01

 ANGLES BETWEEN PRINCIPAL AXES AND ORIGINAL AXES (DEGREES)
         X             Y             Z
 A     32.751499     94.524558     57.641569
 B    101.930979     29.845973     63.082983
 C    119.995935    119.431201     44.506717


 POINT   ATOM  MASS NO  NUCLEAR G FACTOR
   75   75 SI     29      -1.1106000

 TENSOR IN ORIGINAL CARTESIAN AXES
 XX  1.901044E-07 YY  1.791722E-07 ZZ -3.692766E-07 XY -5.719429E-09 XZ -2.013145E-07 YZ -2.021602E-07

 TENSOR IN PRINCIPAL AXIS SYSTEM
 AA  3.006624E-07 BB  1.901602E-07 CC -4.908226E-07

 PRINCIPAL AXES
         X             Y             Z
 A  6.797256E-01  6.202846E-01 -3.914334E-01
 B -6.802280E-01  7.327248E-01 -2.010688E-02
 C  2.743410E-01  2.799311E-01  9.199868E-01

 ANGLES BETWEEN PRINCIPAL AXES AND ORIGINAL AXES (DEGREES)
         X             Y             Z
 A     47.177792     51.663081    113.043718
 B    132.861460     42.884688     91.152117
 C     74.077257     73.743908     23.075855


 POINT   ATOM  MASS NO  NUCLEAR G FACTOR
   76   76 SI     29      -1.1106000

 TENSOR IN ORIGINAL CARTESIAN AXES
 XX -1.090893E-07 YY  4.200828E-08 ZZ  6.708100E-08 XY  5.466720E-08 XZ -1.388721E-07 YZ -1.499270E-07

 TENSOR IN PRINCIPAL AXIS SYSTEM
 AA -1.892155E-07 BB -6.964658E-08 CC  2.588620E-07

 PRINCIPAL AXES
         X             Y             Z
 A  8.221001E-01  1.653161E-01  5.448138E-01
 B -4.409876E-01  7.901478E-01  4.256717E-01
 C -3.601130E-01 -5.902009E-01  7.224829E-01

 ANGLES BETWEEN PRINCIPAL AXES AND ORIGINAL AXES (DEGREES)
         X             Y             Z
 A     34.704426     80.484403     56.988059
 B    116.166913     37.800678     64.806811
 C    111.107138    126.171266     43.740147


 POINT   ATOM  MASS NO  NUCLEAR G FACTOR
   77   77 SI     29      -1.1106000

 TENSOR IN ORIGINAL CARTESIAN AXES
 XX  1.554543E-08 YY  5.387020E-08 ZZ -6.941563E-08 XY -1.795133E-08 XZ -6.446225E-08 YZ  1.485532E-10

 TENSOR IN PRINCIPAL AXIS SYSTEM
 AA  3.631286E-08 BB  6.827110E-08 CC -1.045840E-07

 PRINCIPAL AXES
         X             Y             Z
 A  6.373687E-01  6.655076E-01 -3.884079E-01
 B -6.040812E-01  7.444775E-01  2.843223E-01
 C  4.783797E-01  5.341177E-02  8.765273E-01

 ANGLES BETWEEN PRINCIPAL AXES AND ORIGINAL AXES (DEGREES)
         X             Y             Z
 A     50.404112     48.278718    112.855473
 B    127.162752     41.885760     73.481655
 C     61.420371     86.938274     28.773752


 POINT   ATOM  MASS NO  NUCLEAR G FACTOR
   78   78 SI     29      -1.1106000

 TENSOR IN ORIGINAL CARTESIAN AXES
 XX  3.313571E-08 YY -1.603919E-10 ZZ -3.297532E-08 XY -1.333000E-08 XZ  2.204668E-08 YZ -2.864085E-08

 TENSOR IN PRINCIPAL AXIS SYSTEM
 AA  4.900509E-08 BB  2.495386E-09 CC -5.150048E-08

 PRINCIPAL AXES
         X             Y             Z
 A  8.850831E-01 -3.106808E-01  3.465622E-01
 B  4.284120E-01  8.348277E-01 -3.457252E-01
 C -1.819095E-01  4.544669E-01  8.719913E-01

 ANGLES BETWEEN PRINCIPAL AXES AND ORIGINAL AXES (DEGREES)
         X             Y             Z
 A     27.738252    108.100264     69.722813
 B     64.633176     33.402100    110.226069
 C    100.481005     62.969361     29.309133


 POINT   ATOM  MASS NO  NUCLEAR G FACTOR
   79   79 SI     29      -1.1106000

 TENSOR IN ORIGINAL CARTESIAN AXES
 XX -1.426055E-07 YY -3.440703E-08 ZZ  1.770125E-07 XY  4.559058E-08 XZ -1.312197E-07 YZ  1.576154E-07

 TENSOR IN PRINCIPAL AXIS SYSTEM
 AA -2.434502E-07 BB -3.987373E-08 CC  2.833239E-07

 PRINCIPAL AXES
         X             Y             Z
 A  7.633777E-01 -4.890717E-01  4.219756E-01
 B  6.039979E-01  7.720297E-01 -1.978803E-01
 C -2.290000E-01  4.059298E-01  8.847486E-01

 ANGLES BETWEEN PRINCIPAL AXES AND ORIGINAL AXES (DEGREES)
         X             Y             Z
 A     40.237119    119.279583     65.040624
 B     52.843234     39.463490    101.413032
 C    103.238207     66.050596     27.779405


 POINT   ATOM  MASS NO  NUCLEAR G FACTOR
   80   80 SI     29      -1.1106000

 TENSOR IN ORIGINAL CARTESIAN AXES
 XX -1.004356E-07 YY -1.375693E-08 ZZ  1.141925E-07 XY  6.259202E-08 XZ  1.440733E-08 YZ -6.513253E-08

 TENSOR IN PRINCIPAL AXIS SYSTEM
 AA -1.404844E-07 BB -1.534224E-09 CC  1.420186E-07

 PRINCIPAL AXES
         X             Y             Z
 A  8.734397E-01 -4.576029E-01 -1.664414E-01
 B  4.853513E-01  7.906407E-01  3.732578E-01
 C -3.920854E-02 -4.068007E-01  9.126751E-01

 ANGLES BETWEEN PRINCIPAL AXES AND ORIGINAL AXES (DEGREES)
         X             Y             Z
 A     29.139155    117.232535     99.580977
 B     60.964512     37.754572     68.083322
 C     92.247060    114.004020     24.122310


 POINT   ATOM  MASS NO  NUCLEAR G FACTOR
   81   81 SI     29      -1.1106000

 TENSOR IN ORIGINAL CARTESIAN AXES
 XX  4.215822E-09 YY -6.014802E-08 ZZ  5.593220E-08 XY -4.757823E-08 XZ -6.826101E-08 YZ  6.615306E-09

 TENSOR IN PRINCIPAL AXIS SYSTEM
 AA -1.801459E-08 BB -9.140328E-08 CC  1.094179E-07

 PRINCIPAL AXES
         X             Y             Z
 A  5.541799E-01 -5.635028E-01  6.126575E-01
 B  5.604712E-01  7.967764E-01  2.258748E-01
 C -6.154322E-01  2.182016E-01  7.573845E-01

 ANGLES BETWEEN PRINCIPAL AXES AND ORIGINAL AXES (DEGREES)
         X             Y             Z
 A     56.345756    124.298391     52.218092
 B     55.911610     37.176637     76.945673
 C    127.983328     77.396574     40.765837


 POINT   ATOM  MASS NO  NUCLEAR G FACTOR
   82   82 SI     29      -1.1106000

 TENSOR IN ORIGINAL CARTESIAN AXES
 XX -2.898441E-08 YY  5.796664E-08 ZZ -2.898223E-08 XY  1.597162E-08 XZ -1.609515E-08 YZ -9.338498E-08

 TENSOR IN PRINCIPAL AXIS SYSTEM
 AA -3.225171E-08 BB  1.207682E-07 CC -8.851644E-08

 PRINCIPAL AXES
         X             Y             Z
 A  9.892663E-01 -1.232147E-01  7.855106E-02
 B  1.461237E-01  8.341711E-01 -5.317956E-01
 C  0.000000E+00  5.375656E-01  8.432219E-01

 ANGLES BETWEEN PRINCIPAL AXES AND ORIGINAL AXES (DEGREES)
         X             Y             Z
 A      8.402354     97.077668     85.494714
 B     81.597646     33.470378    122.126854
 C     90.000000     57.481928     32.518072


 POINT   ATOM  MASS NO  NUCLEAR G FACTOR
   83   83 SI     29      -1.1106000

 TENSOR IN ORIGINAL CARTESIAN AXES
 XX  2.753062E-08 YY -4.191613E-08 ZZ  1.438551E-08 XY -2.646639E-08 XZ  1.030038E-08 YZ -6.767268E-09

 TENSOR IN PRINCIPAL AXIS SYSTEM
 AA  4.167686E-08 BB -5.085261E-08 CC  9.175750E-09

 PRINCIPAL AXES
         X             Y             Z
 A  8.681981E-01 -2.931503E-01  4.003685E-01
 B  3.199094E-01  9.474481E-01  0.000000E+00
 C -3.793284E-01  1.280816E-01  9.163542E-01

[...]
  98   98 SI    5.4546    6.1751    8.8377   0.16211E-06
  99   99 SI    2.9931    8.6893   11.3628   0.14885E-07
 100  100 SI    8.0339    3.5729   11.2236  -0.41517E-09
 101  101 SI    0.4528    6.0434   13.6653   0.71447E-07
 102  102 SI    5.5697    1.1482   13.8024   0.61672E-07
 103  103 SI    0.5044   -8.7096    8.7519  -0.57286E-08
 104  104 SI    5.3822   -3.7628    8.5504  -0.37083E-10
 105  105 SI    3.0379   -1.3425   11.3344  -0.41575E-07
 106  106 SI    7.9569   -6.2342   11.0417   0.49250E-07
 107  107 SI    0.5842   -3.8301   13.9440   0.48340E-07
 108  108 SI    5.5393   -8.5864   13.8513   0.27948E-07
 109  109 SI   -9.5816    0.9210    8.5980   0.29846E-06
 110  110 SI   -4.7316    6.0309    8.8230   0.10858E-06
 111  111 SI   -7.0168    8.5031   11.5259   0.27482E-06
 112  112 SI   -2.0399    3.4960   11.1352  -0.71745E-07
 113  113 SI   -9.3719    5.8461   14.0701  -0.25177E-07
 114  114 SI   -4.3820    1.0559   13.8610  -0.64140E-07
 115  115 SI   -9.3690   -8.9432    8.7194  -0.26993E-07
 116  116 SI   -4.3916   -3.8638    8.5378  -0.84718E-07
 117  117 SI   -6.8803   -1.3600   11.1685   0.34963E-07
 118  118 SI   -1.9681   -6.2005   11.2707  -0.49361E-07
 119  119 SI   -9.5669   -3.6974   13.6802   0.24125E-07
 120  120 SI   -4.2126   -8.8590   13.7974   0.57651E-07
 121  121 SI    3.1434    3.7637   16.1494   0.26579E-07
 122  122 SI    8.0039    8.6379   16.3346   0.95950E-07
 123  123 SI    2.9623   -6.2723   16.5627  -0.14830E-05
 124  124 SI    8.0360   -1.1208   16.4903  -0.11790E-06
 125  125 SI   -6.6787    3.4301   16.6267  -0.24097E-07
 126  126 SI   -1.7531    8.5614   16.3793  -0.29429E-06
 127  127 SI   -7.2230   -6.5750   15.7647   0.35069E-06
 128  128 SI   -1.6584   -1.1104   16.5228  -0.14350E-08
 129  129 SI    0.9795    1.4808   19.1342  -0.97527E-08
 130  130 SI    5.1880    6.3922   18.9035   0.79231E-07
 131  131 SI    1.8819    9.7926  -21.0175   0.31328E-07
 132  132 SI    5.1727   -3.2230   19.0251   0.12868E-07
 133  133 SI   -9.0589    0.8678   19.2746   0.35065E-07
 134  134 SI   -4.6303    6.4752   19.0820  -0.29195E-07
 135  135 SI   -9.0042   -9.0038   18.8678  -0.15176E-09
 136  136 SI   -4.3039   -2.6229   19.5910   0.87018E-07
 137  137 HF   -2.2700    5.9396  -19.6033  -0.62229E-11
 138  138 HF   -8.0058    9.6069  -15.9483  -0.25309E-10
 139  139 HF    3.4960   -0.0332  -16.3744  -0.47113E-10
 140  140 HF   -3.4160   -0.2597  -17.7120   0.29457E-10
 141  141 HF    7.4297    4.9143  -19.6934  -0.56012E-10
 142  142 HF    6.7951   -7.8557  -19.6083  -0.38539E-11
 143  143 HF   -3.1489   -7.4722  -18.1902  -0.47465E-10
 144  144 HF   -8.2929   -4.8906  -20.8849   0.55970E-10
 145  145 HF    9.5409   -0.4729  -16.0779   0.79228E-11
 146  146 HF    2.4037    9.2800  -15.1453   0.20092E-10
 147  147 HF   -7.6557    2.8818   -1.9539   0.61682E-10
 148  148 HF   -3.6579    6.0201   -6.4794  -0.26342E-09
 149  149 HF    7.6201   -6.1318  -13.3655   0.66035E-11
 150  150 HF    6.5129   -1.2776   -3.3941  -0.13071E-10
 151  151 HF    8.0453   -5.8894   -6.0692  -0.96086E-10
 152  152 HF    1.9459    7.3534   -3.2523   0.15557E-10
 153  153 HF    0.8365   -4.9511  -12.9914  -0.11310E-10
 154  154 HF    1.1311   -5.9565   -3.8925  -0.23990E-10
 155  155 HF   -8.9998    8.3905   -9.6597  -0.24720E-10
 156  156 HF   -6.4687    2.6572  -11.9858  -0.10161E-09
 157  157 HF    3.7136    9.2422   -8.8627  -0.18371E-10
 158  158 HF   -2.2172   -1.7625   -9.3517   0.32857E-11
 159  159 HF   -2.1065    1.0739   -3.2361   0.69935E-10
 160  160 HF    7.0470    3.4851   -6.7964  -0.76523E-10
 161  161 HF   -4.9418   -7.2570   -6.7827  -0.44333E-10
 162  162 HF    0.3558    3.3434   -9.3341  -0.44427E-09
 163  163 HF    6.4260    4.1759  -13.1667   0.64619E-12
 164  164 HF   -3.6407    8.9215  -12.6173  -0.29485E-10
 165  165 HF   -8.5496   -1.1430   -7.0391   0.21806E-11
 166  166 HF   -9.7226    8.6404   -3.1073   0.38775E-10
 167  167 HF   -5.7158   -3.8613  -13.4024   0.43284E-10
 168  168 HF    5.4233   -1.1380   -9.9343   0.18297E-10
 *******************************************************************************
 HYPERFINE COUPLING CONSTANTS (AN)
 *******************************************************************************
 POINT  ATOM  MASS N0    NUCLEAR      AN (MT)       AN (MHZ)    AN (CM**(-1))
                        G FACTOR
   1    1 O      17   -0.7575220    0.38696E-07   0.10844E-05   0.36173E-10
   2    2 O      17   -0.7575220   -0.13403E-05  -0.37561E-04  -0.12529E-08
   3    3 O      17   -0.7575220    0.19013E-05   0.53283E-04   0.17773E-08
   4    4 O      17   -0.7575220   -0.71682E-05  -0.20089E-03  -0.67009E-08
   5    5 O      17   -0.7575220    0.14246E-05   0.39923E-04   0.13317E-08
   6    6 O      17   -0.7575220    0.90566E-06   0.25381E-04   0.84662E-09
   7    7 O      17   -0.7575220    0.41899E-05   0.11742E-03   0.39168E-08
   8    8 O      17   -0.7575220   -0.35957E-05  -0.10077E-03  -0.33613E-08
   9    9 O      17   -0.7575220   -0.61353E-05  -0.17194E-03  -0.57353E-08
  10   10 O      17   -0.7575220   -0.26342E-05  -0.73824E-04  -0.24625E-08
  11   11 O      17   -0.7575220   -0.34338E-06  -0.96233E-05  -0.32100E-09
  12   12 O      17   -0.7575220   -0.10689E-06  -0.29956E-05  -0.99922E-10
  13   13 O      17   -0.7575220   -0.10004E-05  -0.28036E-04  -0.93519E-09
  14   14 O      17   -0.7575220   -0.62059E-05  -0.17392E-03  -0.58014E-08
  15   15 O      17   -0.7575220   -0.18341E-05  -0.51401E-04  -0.17146E-08
  16   16 O      17   -0.7575220    0.34463E-04   0.96582E-03   0.32216E-07
  17   17 O      17   -0.7575220    0.68979E-05   0.19331E-03   0.64482E-08
  18   18 O      17   -0.7575220    0.28053E-05   0.78618E-04   0.26224E-08
  19   19 O      17   -0.7575220    0.13291E-04   0.37249E-03   0.12425E-07
  20   20 O      17   -0.7575220   -0.77316E-05  -0.21668E-03  -0.72276E-08
  21   21 O      17   -0.7575220    0.84535E-07   0.23691E-05   0.79024E-10
  22   22 O      17   -0.7575220   -0.39483E-05  -0.11065E-03  -0.36909E-08
  23   23 O      17   -0.7575220   -0.21650E-05  -0.60674E-04  -0.20239E-08
  24   24 O      17   -0.7575220   -0.49890E-05  -0.13982E-03  -0.46638E-08
  25   25 O      17   -0.7575220   -0.37474E-05  -0.10502E-03  -0.35031E-08
  26   26 O      17   -0.7575220    0.72736E-06   0.20384E-04   0.67995E-09
  27   27 O      17   -0.7575220   -0.35985E-05  -0.10085E-03  -0.33639E-08
  28   28 O      17   -0.7575220   -0.45731E-05  -0.12816E-03  -0.42750E-08
  29   29 O      17   -0.7575220   -0.42933E-05  -0.12032E-03  -0.40134E-08
  30   30 O      17   -0.7575220   -0.13228E-04  -0.37072E-03  -0.12366E-07
  31   31 O      17   -0.7575220   -0.15565E-06  -0.43622E-05  -0.14551E-09
  32   32 O      17   -0.7575220   -0.68357E-06  -0.19157E-04  -0.63901E-09
  33   33 O      17   -0.7575220   -0.32421E-05  -0.90859E-04  -0.30307E-08
  34   34 O      17   -0.7575220   -0.58239E-06  -0.16322E-04  -0.54443E-09
  35   35 O      17   -0.7575220   -0.21932E-04  -0.61465E-03  -0.20503E-07
  36   36 O      17   -0.7575220    0.65687E-06   0.18409E-04   0.61405E-09
  37   37 O      17   -0.7575220   -0.12032E-05  -0.33720E-04  -0.11248E-08
  38   38 O      17   -0.7575220    0.38420E-05   0.10767E-03   0.35915E-08
  39   39 O      17   -0.7575220   -0.75539E-06  -0.21170E-04  -0.70615E-09
  40   40 O      17   -0.7575220    0.71994E-04   0.20176E-02   0.67301E-07
  41   41 O      17   -0.7575220    0.14453E-04   0.40505E-03   0.13511E-07
  42   42 O      17   -0.7575220   -0.35447E-05  -0.99339E-04  -0.33136E-08
  43   43 O      17   -0.7575220    0.14024E-04   0.39302E-03   0.13110E-07
  44   44 O      17   -0.7575220   -0.36123E-05  -0.10123E-03  -0.33768E-08
  45   45 O      17   -0.7575220    0.13076E-04   0.36645E-03   0.12224E-07
  46   46 O      17   -0.7575220   -0.48379E-06  -0.13558E-04  -0.45225E-09
  47   47 O      17   -0.7575220   -0.10137E-05  -0.28408E-04  -0.94759E-09
  48   48 O      17   -0.7575220    0.24867E-05   0.69689E-04   0.23246E-08
  49   49 O      17   -0.7575220    0.35548E-05   0.99623E-04   0.33231E-08
  50   50 O      17   -0.7575220   -0.50831E-05  -0.14245E-03  -0.47518E-08
  51   51 O      17   -0.7575220    0.31498E-05   0.88272E-04   0.29444E-08
  52   52 O      17   -0.7575220   -0.27425E-05  -0.76858E-04  -0.25637E-08
  53   53 O      17   -0.7575220   -0.81957E-05  -0.22969E-03  -0.76615E-08
  54   54 O      17   -0.7575220    0.58825E-05   0.16486E-03   0.54991E-08
  55   55 O      17   -0.7575220   -0.45875E-05  -0.12856E-03  -0.42884E-08
  56   56 O      17   -0.7575220   -0.36929E-05  -0.10349E-03  -0.34521E-08
  57   57 O      17   -0.7575220    0.38714E-05   0.10849E-03   0.36190E-08
  58   58 O      17   -0.7575220   -0.50906E-05  -0.14266E-03  -0.47588E-08
  59   59 O      17   -0.7575220    0.63909E-04   0.17911E-02   0.59743E-07
  60   60 O      17   -0.7575220    0.48361E-07   0.13553E-05   0.45208E-10
  61   61 O      17   -0.7575220    0.18361E-03   0.51457E-02   0.17164E-06
  62   62 O      17   -0.7575220   -0.32135E-05  -0.90057E-04  -0.30040E-08
  63   63 O      17   -0.7575220    0.54354E-05   0.15233E-03   0.50811E-08
  64   64 O      17   -0.7575220    0.49051E-05   0.13746E-03   0.45853E-08
  65   65 O      17   -0.7575220    0.24978E-04   0.70002E-03   0.23350E-07
  66   66 O      17   -0.7575220    0.85857E-05   0.24061E-03   0.80260E-08
  67   67 O      17   -0.7575220    0.82629E-05   0.23157E-03   0.77243E-08
  68   68 O      17   -0.7575220    0.55653E-05   0.15597E-03   0.52025E-08
  69   69 O      17   -0.7575220    0.49237E-04   0.13799E-02   0.46028E-07
  70   70 O      17   -0.7575220    0.16956E-04   0.47520E-03   0.15851E-07
  71   71 O      17   -0.7575220    0.79141E-05   0.22179E-03   0.73982E-08
  72   72 O      17   -0.7575220    0.61029E-04   0.17103E-02   0.57050E-07
  73   73 SI     29   -1.1106000    0.12887E-05   0.36116E-04   0.12047E-08
  74   74 SI     29   -1.1106000   -0.14944E-05  -0.41880E-04  -0.13970E-08
  75   75 SI     29   -1.1106000    0.16337E-05   0.45784E-04   0.15272E-08
  76   76 SI     29   -1.1106000   -0.54027E-05  -0.15141E-03  -0.50505E-08
  77   77 SI     29   -1.1106000   -0.17926E-06  -0.50237E-05  -0.16757E-09
  78   78 SI     29   -1.1106000    0.29328E-05   0.82191E-04   0.27416E-08
  79   79 SI     29   -1.1106000   -0.77812E-05  -0.21807E-03  -0.72740E-08
  80   80 SI     29   -1.1106000   -0.23367E-05  -0.65486E-04  -0.21844E-08
  81   81 SI     29   -1.1106000    0.12643E-06   0.35432E-05   0.11819E-09
  82   82 SI     29   -1.1106000    0.22170E-05   0.62131E-04   0.20725E-08
  83   83 SI     29   -1.1106000    0.15187E-05   0.42561E-04   0.14197E-08
  84   84 SI     29   -1.1106000   -0.12397E-05  -0.34742E-04  -0.11589E-08
  85   85 SI     29   -1.1106000    0.22706E-05   0.63634E-04   0.21226E-08
  86   86 SI     29   -1.1106000    0.72687E-06   0.20370E-04   0.67948E-09
  87   87 SI     29   -1.1106000   -0.16526E-04  -0.46313E-03  -0.15448E-07
  88   88 SI     29   -1.1106000    0.37751E-05   0.10580E-03   0.35290E-08
  89   89 SI     29   -1.1106000   -0.45830E-06  -0.12844E-04  -0.42843E-09
  90   90 SI     29   -1.1106000    0.67545E-06   0.18930E-04   0.63142E-09
  91   91 SI     29   -1.1106000   -0.52172E-05  -0.14621E-03  -0.48771E-08
  92   92 SI     29   -1.1106000    0.85022E-05   0.23827E-03   0.79479E-08
  93   93 SI     29   -1.1106000    0.19893E-05   0.55751E-04   0.18597E-08
  94   94 SI     29   -1.1106000   -0.22486E-05  -0.63017E-04  -0.21020E-08
  95   95 SI     29   -1.1106000    0.14904E-05   0.41770E-04   0.13933E-08
  96   96 SI     29   -1.1106000    0.40330E-05   0.11302E-03   0.37701E-08
  97   97 SI     29   -1.1106000   -0.51625E-06  -0.14468E-04  -0.48259E-09
  98   98 SI     29   -1.1106000   -0.51410E-05  -0.14408E-03  -0.48059E-08
  99   99 SI     29   -1.1106000   -0.47205E-06  -0.13229E-04  -0.44128E-09
 100  100 SI     29   -1.1106000    0.13166E-07   0.36898E-06   0.12308E-10
 101  101 SI     29   -1.1106000   -0.22658E-05  -0.63498E-04  -0.21181E-08
 102  102 SI     29   -1.1106000   -0.19558E-05  -0.54810E-04  -0.18283E-08
 103  103 SI     29   -1.1106000    0.18167E-06   0.50913E-05   0.16983E-09
 104  104 SI     29   -1.1106000    0.11760E-08   0.32958E-07   0.10994E-11
 105  105 SI     29   -1.1106000    0.13185E-05   0.36950E-04   0.12325E-08
 106  106 SI     29   -1.1106000   -0.15618E-05  -0.43770E-04  -0.14600E-08
 107  107 SI     29   -1.1106000   -0.15330E-05  -0.42962E-04  -0.14331E-08
 108  108 SI     29   -1.1106000   -0.88629E-06  -0.24838E-04  -0.82851E-09
 109  109 SI     29   -1.1106000   -0.94649E-05  -0.26525E-03  -0.88479E-08
 110  110 SI     29   -1.1106000   -0.34432E-05  -0.96496E-04  -0.32188E-08
 111  111 SI     29   -1.1106000   -0.87154E-05  -0.24425E-03  -0.81473E-08
 112  112 SI     29   -1.1106000    0.22752E-05   0.63763E-04   0.21269E-08
 113  113 SI     29   -1.1106000    0.79843E-06   0.22376E-04   0.74638E-09
 114  114 SI     29   -1.1106000    0.20340E-05   0.57004E-04   0.19014E-08
 115  115 SI     29   -1.1106000    0.85603E-06   0.23990E-04   0.80023E-09
 116  116 SI     29   -1.1106000    0.26866E-05   0.75293E-04   0.25115E-08
 117  117 SI     29   -1.1106000   -0.11088E-05  -0.31073E-04  -0.10365E-08
 118  118 SI     29   -1.1106000    0.15654E-05   0.43869E-04   0.14633E-08
 119  119 SI     29   -1.1106000   -0.76507E-06  -0.21441E-04  -0.71519E-09
 120  120 SI     29   -1.1106000   -0.18283E-05  -0.51237E-04  -0.17091E-08
 121  121 SI     29   -1.1106000   -0.84290E-06  -0.23622E-04  -0.78795E-09
 122  122 SI     29   -1.1106000   -0.30428E-05  -0.85275E-04  -0.28445E-08
 123  123 SI     29   -1.1106000    0.47028E-04   0.13180E-02   0.43963E-07
 124  124 SI     29   -1.1106000    0.37388E-05   0.10478E-03   0.34951E-08
 125  125 SI     29   -1.1106000    0.76417E-06   0.21416E-04   0.71436E-09
 126  126 SI     29   -1.1106000    0.93327E-05   0.26155E-03   0.87244E-08
 127  127 SI     29   -1.1106000   -0.11121E-04  -0.31167E-03  -0.10396E-07
 128  128 SI     29   -1.1106000    0.45506E-07   0.12753E-05   0.42540E-10
 129  129 SI     29   -1.1106000    0.30928E-06   0.86677E-05   0.28912E-09
 130  130 SI     29   -1.1106000   -0.25126E-05  -0.70416E-04  -0.23488E-08
 131  131 SI     29   -1.1106000   -0.99351E-06  -0.27843E-04  -0.92874E-09
 132  132 SI     29   -1.1106000   -0.40809E-06  -0.11437E-04  -0.38149E-09
 133  133 SI     29   -1.1106000   -0.11120E-05  -0.31164E-04  -0.10395E-08
 134  134 SI     29   -1.1106000    0.92585E-06   0.25947E-04   0.86550E-09
 135  135 SI     29   -1.1106000    0.48126E-08   0.13487E-06   0.44989E-11
 136  136 SI     29   -1.1106000   -0.27596E-05  -0.77337E-04  -0.25797E-08
 137  137 HF    177    0.2267000   -0.40283E-10  -0.11289E-08  -0.37657E-13
 137  137 HF    179   -0.1424000    0.25303E-10   0.70913E-09   0.23654E-13
 138  138 HF    177    0.2267000   -0.16383E-09  -0.45914E-08  -0.15315E-12
 138  138 HF    179   -0.1424000    0.10291E-09   0.28841E-08   0.96202E-13
 139  139 HF    177    0.2267000   -0.30497E-09  -0.85469E-08  -0.28509E-12
 139  139 HF    179   -0.1424000    0.19157E-09   0.53687E-08   0.17908E-12
 140  140 HF    177    0.2267000    0.19069E-09   0.53439E-08   0.17825E-12
 140  140 HF    179   -0.1424000   -0.11978E-09  -0.33568E-08  -0.11197E-12
 141  141 HF    177    0.2267000   -0.36258E-09  -0.10161E-07  -0.33895E-12
 141  141 HF    179   -0.1424000    0.22775E-09   0.63828E-08   0.21291E-12
 142  142 HF    177    0.2267000   -0.24947E-10  -0.69914E-09  -0.23321E-13
 142  142 HF    179   -0.1424000    0.15670E-10   0.43916E-09   0.14649E-13
 143  143 HF    177    0.2267000   -0.30725E-09  -0.86107E-08  -0.28722E-12
 143  143 HF    179   -0.1424000    0.19300E-09   0.54088E-08   0.18042E-12
 144  144 HF    177    0.2267000    0.36231E-09   0.10154E-07   0.33869E-12
 144  144 HF    179   -0.1424000   -0.22758E-09  -0.63779E-08  -0.21275E-12
 145  145 HF    177    0.2267000    0.51287E-10   0.14373E-08   0.47943E-13
 145  145 HF    179   -0.1424000   -0.32215E-10  -0.90283E-09  -0.30115E-13
 146  146 HF    177    0.2267000    0.13006E-09   0.36450E-08   0.12158E-12
 146  146 HF    179   -0.1424000   -0.81698E-10  -0.22896E-08  -0.76373E-13
 147  147 HF    177    0.2267000    0.39929E-09   0.11190E-07   0.37326E-12
 147  147 HF    179   -0.1424000   -0.25081E-09  -0.70289E-08  -0.23446E-12
 148  148 HF    177    0.2267000   -0.17052E-08  -0.47789E-07  -0.15941E-11
 148  148 HF    179   -0.1424000    0.10711E-08   0.30018E-07   0.10013E-11
 149  149 HF    177    0.2267000    0.42746E-10   0.11980E-08   0.39960E-13
 149  149 HF    179   -0.1424000   -0.26851E-10  -0.75249E-09  -0.25100E-13
 150  150 HF    177    0.2267000   -0.84610E-10  -0.23712E-08  -0.79094E-13
 150  150 HF    179   -0.1424000    0.53147E-10   0.14894E-08   0.49683E-13
 151  151 HF    177    0.2267000   -0.62199E-09  -0.17431E-07  -0.58145E-12
 151  151 HF    179   -0.1424000    0.39070E-09   0.10949E-07   0.36523E-12
 152  152 HF    177    0.2267000    0.10071E-09   0.28223E-08   0.94141E-13
 152  152 HF    179   -0.1424000   -0.63258E-10  -0.17728E-08  -0.59134E-13
 153  153 HF    177    0.2267000   -0.73211E-10  -0.20517E-08  -0.68438E-13
 153  153 HF    179   -0.1424000    0.45987E-10   0.12888E-08   0.42989E-13
 154  154 HF    177    0.2267000   -0.15529E-09  -0.43520E-08  -0.14517E-12
 154  154 HF    179   -0.1424000    0.97545E-10   0.27337E-08   0.91187E-13
 155  155 HF    177    0.2267000   -0.16002E-09  -0.44846E-08  -0.14959E-12
 155  155 HF    179   -0.1424000    0.10052E-09   0.28169E-08   0.93963E-13
 156  156 HF    177    0.2267000   -0.65778E-09  -0.18434E-07  -0.61490E-12
 156  156 HF    179   -0.1424000    0.41318E-09   0.11579E-07   0.38625E-12
 157  157 HF    177    0.2267000   -0.11892E-09  -0.33328E-08  -0.11117E-12
 157  157 HF    179   -0.1424000    0.74701E-10   0.20935E-08   0.69831E-13
 158  158 HF    177    0.2267000    0.21269E-10   0.59607E-09   0.19883E-13
 158  158 HF    179   -0.1424000   -0.13360E-10  -0.37442E-09  -0.12489E-13
 159  159 HF    177    0.2267000    0.45271E-09   0.12687E-07   0.42320E-12
 159  159 HF    179   -0.1424000   -0.28437E-09  -0.79694E-08  -0.26583E-12
 160  160 HF    177    0.2267000   -0.49536E-09  -0.13882E-07  -0.46307E-12
 160  160 HF    179   -0.1424000    0.31116E-09   0.87201E-08   0.29087E-12
 161  161 HF    177    0.2267000   -0.28698E-09  -0.80426E-08  -0.26827E-12
 161  161 HF    179   -0.1424000    0.18027E-09   0.50519E-08   0.16851E-12
 162  162 HF    177    0.2267000   -0.28759E-08  -0.80596E-07  -0.26884E-11
 162  162 HF    179   -0.1424000    0.18065E-08   0.50626E-07   0.16887E-11
 163  163 HF    177    0.2267000    0.41830E-11   0.11723E-09   0.39103E-14
 163  163 HF    179   -0.1424000   -0.26275E-11  -0.73636E-10  -0.24562E-14
 164  164 HF    177    0.2267000   -0.19086E-09  -0.53490E-08  -0.17842E-12
 164  164 HF    179   -0.1424000    0.11989E-09   0.33599E-08   0.11207E-12
 165  165 HF    177    0.2267000    0.14116E-10   0.39560E-09   0.13196E-13
 165  165 HF    179   -0.1424000   -0.88668E-11  -0.24849E-09  -0.82888E-14
 166  166 HF    177    0.2267000    0.25100E-09   0.70342E-08   0.23464E-12
 166  166 HF    179   -0.1424000   -0.15766E-09  -0.44185E-08  -0.14739E-12
 167  167 HF    177    0.2267000    0.28019E-09   0.78522E-08   0.26192E-12
 167  167 HF    179   -0.1424000   -0.17600E-09  -0.49323E-08  -0.16452E-12
 168  168 HF    177    0.2267000    0.11844E-09   0.33193E-08   0.11072E-12
 168  168 HF    179   -0.1424000   -0.74397E-10  -0.20850E-08  -0.69548E-13

  CONVERSION FACTORS 
     AN (MILLI T)        28.554470 * GN * P(SPIN) (BOHR**(-3))
     AN (MHZ)            28.024940 * AN (MILLI T) 
     AN (CM**(-1))   0.3335641E-04 * AN (MHZ) 
 TTTTTTTTTTTTTTTTTTTTTTTTTTTTTT ISOTROPIC   TELAPSE    92702.91 TCPU   265082.67
 ENDPROP   
 TTTTTTTTTTTTTTTTTTTTTTTTTTTTTT END         TELAPSE    92702.91 TCPU   265082.67
 EEEEEEEEEE TERMINATION  DATE 17 08 2015 TIME 20:01:06.5
