--------------------------------------------------------------------------
WARNING: Open MPI will create a shared memory backing file in a
directory that appears to be mounted on a network filesystem.
Creating the shared memory backup file on a network file system, such
as NFS or Lustre is not recommended -- it may cause excessive network
traffic to your file servers and/or cause shared memory traffic in
Open MPI to be much slower than expected.

You may want to check what the typical temporary directory is on your
node.  Possible sources of the location of this temporary directory
include the $TEMPDIR, $TEMP, and $TMP environment variables.

Note, too, that system administrators can set a list of filesystems
where Open MPI is disallowed from creating temporary files by settings
the MCA parameter "orte_no_session_dir".

  Local host: r2i4n16
  Fileame:    /ichec/work/scratch/tmp/318551.service1.cb3.ichec.ie/openmpi-sessions-emehes@r2i4n16_0/6996/1/shared_mem_pool.r2i4n16

You can set the MCA paramter shmem_mmap_enable_nfs_warning to 0 to
disable this message.
--------------------------------------------------------------------------
--------------------------------------------------------------------------
WARNING: It appears that your OpenFabrics subsystem is configured to only
allow registering part of your physical memory.  This can cause MPI jobs to
run with erratic performance, hang, and/or crash.

This may be caused by your OpenFabrics vendor limiting the amount of
physical memory that can be registered.  You should investigate the
relevant Linux kernel module parameters that control how much physical
memory can be registered, and increase them to allow registering all
physical memory on your machine.

See this Open MPI FAQ item for more information on these Linux kernel module
parameters:

    http://www.open-mpi.org/faq/?category=openfabrics#ib-locked-pages

  Local host:              r2i4n16
  Registerable memory:     32768 MiB
  Total memory:            65506 MiB

Your MPI job will continue, but may be behave poorly and/or hang.
--------------------------------------------------------------------------
         192 PROCESSORS WORKING

         
 *******************************************************************************
 *                                                                             *
 *                                CRYSTAL09                                    *
 *                              public : 2.0                                   *
 *                      December 10th, 2012 - parallel executable              *
 *                                                                             *
 *                                                                             *
 *                                                                             *
 *                              MAIN AUTHORS                                   *
 *                                                                             *
 *    R. DOVESI(1,10), V.R. SAUNDERS(2), C. ROETTI(1,10), R. ORLANDO (1,3),    *
 *  C.M. ZICOVICH-WILSON(1,4), F. PASCALE(5), B. CIVALLERI(1,10), K. DOLL(6),  *
 *       N.M. HARRISON(2,7), I. J. BUSH(2), Ph. D'ARCO(8), M. LLUNELL(9)       *
 *                                                                             *
 * (1) THEORETICAL CHEMISTRY GROUP - UNIVERSITA' DI TORINO - TORINO (ITALY)    *
 *      http://www.crystal.unito.it                                            *
 * (2) COMPUTATIONAL SCIENCE & ENGINEERING DEPARTMENT - STFC DARESBURY LABORATO*Y (UK)
 *     http://www.cse.stfc.ac.uk/cmg/CRYSTAL/                                  *
 * (3) UNIVERSITA' DEL PIEMONTE ORIENTALE - ALESSANDRIA (ITALY)                *
 * (4) UNIVERSIDAD AUTONOMA DEL ESTADO DE MORELOS - CUERNAVACA (MEXICO)        *
 * (5) UNIVERSITE' HENRI POINCARE' - NANCY (FRANCE)                            *
 * (6) MPI FUER FESTKOERPERFORSCHUNG - STUTTGART (GERMANY)                     *
 * (7) IMPERIAL COLLEGE - LONDON (UK)                                          *
 * (8) UNIVERSITE' PIERRE ET MARIE CURIE - PARIS (FRANCE)                      *
 * (9) UNIVERSIDAD DE BARCELONA - BARCELONA (SPAIN)                            *
 *(10) NIS - NANOSTRUCTURED INTERFACES AND SURFACES - TORINO (ITALY)           *
 *     http://www.crystal.unito.it                                             *
 *******************************************************************************
 EEEEEEEEEE STARTING  DATE 03 11 2014 TIME 12:41:14.5
 Created with astools                                                            

 CRYSTAL CALCULATION
 (INPUT ACCORDING TO THE INTERNATIONAL TABLES FOR X-RAY CRYSTALLOGRAPHY)
 CRYSTAL FAMILY                       :  TRICLINIC   
 CRYSTAL CLASS  (GROTH - 1921)        :  TRICLINIC PEDIAL                     

 SPACE GROUP (NONCENTROSYMMETRIC)     :  P 1             

 LATTICE PARAMETERS  (ANGSTROMS AND DEGREES) - CONVENTIONAL CELL
        A           B           C        ALPHA        BETA       GAMMA
    10.83890    10.43230    21.18890    90.00000    90.00000    90.00000


 NUMBER OF IRREDUCIBLE ATOMS IN THE CONVENTIONAL CELL:  161

 INPUT COORDINATES

 ATOM AT. N.              COORDINATES
   1   1     8.841970000000E-01  9.447460000000E-01  7.751000000000E-03
   2   1     4.857890000000E-01  4.687910000000E-01  1.030911000000E+00
   3   1     7.597820000000E-01  8.351340000000E-01  6.697600000000E-02
   4   1     1.494740000000E-01  2.524070000000E-01  5.715320000000E-01
   5   1     4.710090000000E-01  6.741730000000E-01  5.478130000000E-01
   6   1     9.502060000000E-01  6.144140000000E-01  5.333080000000E-01
   7   1     6.646500000000E-01  7.189410000000E-01  7.232710000000E-01
   8   1     8.894520000000E-01  7.489800000000E-01  7.574600000000E-01
   9   1     1.185472000000E+00  1.928920000000E-01  9.776180000000E-01
  10   1     4.416900000000E-01  6.294590000000E-01  8.644480000000E-01
  11   1     9.980090000000E-01  1.000770000000E-01  9.750890000000E-01
  12   1     1.037507000000E+00  2.706150000000E-01  1.064799000000E+00
  13   1     5.952620000000E-01  1.227030000000E-01  9.851820000000E-01
  14   8     2.580060000000E-01  3.529690000000E-01  6.438140000000E-01
  15   8     1.563100000000E-01  5.939570000000E-01  6.598600000000E-01
  16   8     5.113520000000E-01  3.121820000000E-01  6.248190000000E-01
  17   8     8.079240000000E-01  4.543710000000E-01  5.710190000000E-01
  18   8     1.568090000000E-01  5.639200000000E-02  6.329430000000E-01
  19   8     5.474290000000E-01  5.036100000000E-01  5.433020000000E-01
  20   8     8.423060000000E-01  6.526400000000E-01  6.499040000000E-01
  21   8     3.530850000000E-01  3.487000000000E-01  5.316870000000E-01
  22   8     6.886890000000E-01  1.084030000000E-01  4.859300000000E-01
  23   8     9.010110000000E-01  7.014200000000E-02  6.582020000000E-01
  24   8     1.003068000000E+00  4.592000000000E-02  5.467360000000E-01
  25   8     5.522940000000E-01  7.030240000000E-01  6.552950000000E-01
  26   8     9.925850000000E-01  4.212550000000E-01  6.426960000000E-01
  27   8     2.614870000000E-01  8.358170000000E-01  6.215790000000E-01
  28   8     1.702140000000E-01  6.529050000000E-01  5.435260000000E-01
  29   8     2.591600000000E-02  8.169880000000E-01  5.968250000000E-01
  30   8     6.750470000000E-01  7.537150000000E-01  5.451170000000E-01
  31   8     4.590250000000E-01  8.708700000000E-01  5.579350000000E-01
  32   8     3.630310000000E-01  1.205310000000E-01  5.937210000000E-01
  33   8     2.624760000000E-01  8.429960000000E-01  7.675070000000E-01
  34   8     1.736050000000E-01  2.341600000000E-01  8.461080000000E-01
  35   8     9.596610000000E-01  3.228010000000E-01  9.478430000000E-01
  36   8     3.560510000000E-01  5.374800000000E-02  8.151980000000E-01
  37   8     6.734310000000E-01  1.644560000000E-01  7.027890000000E-01
  38   8     2.175190000000E-01  6.581750000000E-01  8.766500000000E-01
  39   8     8.238880000000E-01  6.892500000000E-02  7.863580000000E-01
  40   8     3.868010000000E-01  4.052310000000E-01  8.548330000000E-01
  41   8     2.659280000000E-01  5.197990000000E-01  7.657320000000E-01
  42   8     4.893400000000E-02  8.977360000000E-01  6.993760000000E-01
  43   8     1.014702000000E+00  8.367030000000E-01  9.256470000000E-01
  44   8     8.647600000000E-01  4.951020000000E-01  7.392680000000E-01
  45   8     4.634960000000E-01  6.124000000000E-01  7.953240000000E-01
  46   8     7.539150000000E-01  8.976930000000E-01  6.976470000000E-01
  47   8     5.389280000000E-01  9.693110000000E-01  9.548590000000E-01
  48   8     5.984380000000E-01  7.184440000000E-01  9.922550000000E-01
  49   8     5.099230000000E-01  8.557380000000E-01  7.706720000000E-01
  50   8     5.849220000000E-01  7.813820000000E-01  8.749210000000E-01
  51   8     9.503740000000E-01  8.614600000000E-02  8.984000000000E-01
  52   8     5.517130000000E-01  3.507340000000E-01  9.468780000000E-01
  53   8     7.277130000000E-01  1.894180000000E-01  8.919170000000E-01
  54   8     6.220800000000E-02  9.490310000000E-01  8.161600000000E-01
  55   8     1.927450000000E-01  2.526100000000E-02  9.126220000000E-01
  56   8     3.936830000000E-01  5.342160000000E-01  9.564750000000E-01
  57   8     7.569900000000E-02  4.736780000000E-01  8.390020000000E-01
  58   8     1.139300000000E-01  3.402900000000E-01  7.359870000000E-01
  59   8     9.416330000000E-01  2.738160000000E-01  8.124120000000E-01
  60   8     3.852770000000E-01  1.004662000000E+00  6.934260000000E-01
  61   8     4.905120000000E-01  3.874190000000E-01  7.325330000000E-01
  62   8     6.975750000000E-01  3.673670000000E-01  7.791470000000E-01
  63   8     7.042340000000E-01  6.299460000000E-01  8.089670000000E-01
  64   8     8.344240000000E-01  4.707850000000E-01  8.674690000000E-01
  65   8     8.783900000000E-02  6.982390000000E-01  7.679570000000E-01
  66   8     7.031880000000E-01  4.110220000000E-01  6.554250000000E-01
  67   8     9.645920000000E-01  5.821500000000E-01  9.500120000000E-01
  68   8     3.776220000000E-01  7.960650000000E-01  9.353260000000E-01
  69   8     3.900330000000E-01  1.993570000000E-01  9.060200000000E-01
  70  14     9.817290000000E-01  1.917800000000E-02  4.147700000000E-02
  71  14     2.553990000000E-01  3.061250000000E-01  1.708000000000E-02
  72  14     1.384830000000E-01  4.393350000000E-01  8.629400000000E-02
  73  14     3.973320000000E-01  1.917860000000E-01  8.769800000000E-02
  74  14     3.080600000000E-02  3.156070000000E-01  1.608530000000E-01
  75  14     2.819130000000E-01  7.161300000000E-02  1.610930000000E-01
  76  14     1.532300000000E-01  1.912490000000E-01  2.290310000000E-01
  77  14     3.954720000000E-01  4.345670000000E-01  2.248540000000E-01
  78  14     7.148600000000E-02  6.184970000000E-01  1.022071000000E+00
  79  14     3.394290000000E-01  8.667380000000E-01  4.438100000000E-02
  80  14     1.601810000000E-01  9.447470000000E-01  9.413800000000E-02
  81  14     3.990750000000E-01  6.864230000000E-01  1.018040000000E-01
  82  14     3.138500000000E-02  8.172180000000E-01  1.588290000000E-01
  83  14     2.659680000000E-01  5.544550000000E-01  1.576790000000E-01
  84  14     1.552060000000E-01  6.906020000000E-01  2.249330000000E-01
  85  14     4.052150000000E-01  9.429240000000E-01  2.260740000000E-01
  86  14     5.156570000000E-01  3.193700000000E-02  2.954600000000E-02
  87  14     7.697560000000E-01  3.224230000000E-01  3.218000000000E-02
  88  14     6.585720000000E-01  4.518580000000E-01  9.804700000000E-02
  89  14     8.979870000000E-01  1.912320000000E-01  9.957400000000E-02
  90  14     5.227850000000E-01  3.192820000000E-01  1.555780000000E-01
  91  14     7.714650000000E-01  6.270400000000E-02  1.645920000000E-01
  92  14     6.495750000000E-01  2.002580000000E-01  2.253580000000E-01
  93  14     9.106680000000E-01  4.475170000000E-01  2.246550000000E-01
  94  14     5.452010000000E-01  5.999990000000E-01  3.702800000000E-02
  95  14     8.896640000000E-01  7.475240000000E-01  9.436940000000E-01
  96  14     6.637200000000E-01  9.275420000000E-01  9.665500000000E-02
  97  14     9.027340000000E-01  7.211250000000E-01  8.317000000000E-02
  98  14     5.342510000000E-01  8.131690000000E-01  1.632240000000E-01
  99  14     7.959450000000E-01  5.834980000000E-01  1.548910000000E-01
 100  14     6.649290000000E-01  6.914170000000E-01  2.244610000000E-01
 101  14     9.093670000000E-01  9.438160000000E-01  2.282840000000E-01
 102  14     2.673500000000E-02  7.262800000000E-02  2.975510000000E-01
 103  14     2.773910000000E-01  3.116500000000E-01  2.976440000000E-01
 104  14     3.816000000000E-02  5.654220000000E-01  2.936940000000E-01
 105  14     2.764050000000E-01  8.201040000000E-01  2.913770000000E-01
 106  14     5.267260000000E-01  7.358200000000E-02  2.907650000000E-01
 107  14     7.825110000000E-01  3.224580000000E-01  2.894270000000E-01
 108  14     5.305590000000E-01  5.656170000000E-01  2.817190000000E-01
 109  14     7.852130000000E-01  8.139170000000E-01  2.934000000000E-01
 110  14     1.554890000000E-01  4.385060000000E-01  3.662240000000E-01
 111  14     4.031880000000E-01  1.854360000000E-01  3.643760000000E-01
 112  14     2.476500000000E-02  3.151240000000E-01  4.361130000000E-01
 113  14     2.782240000000E-01  6.758800000000E-02  4.377010000000E-01
 114  14     1.443410000000E-01  1.911860000000E-01  5.094020000000E-01
 115  14     4.388520000000E-01  4.511120000000E-01  4.901390000000E-01
 116  14     1.607720000000E-01  9.506590000000E-01  3.617290000000E-01
 117  14     4.104390000000E-01  6.878560000000E-01  3.483980000000E-01
 118  14     3.426500000000E-02  8.206830000000E-01  4.253580000000E-01
 119  14     3.005210000000E-01  5.675240000000E-01  4.216730000000E-01
 120  14     2.064850000000E-01  7.299220000000E-01  4.760170000000E-01
 121  14     3.773790000000E-01  8.830210000000E-01  4.863840000000E-01
 122  14     6.563850000000E-01  4.540020000000E-01  3.499280000000E-01
 123  14     8.976990000000E-01  2.012840000000E-01  3.636020000000E-01
 124  14     5.372170000000E-01  3.285690000000E-01  4.145150000000E-01
 125  14     7.792440000000E-01  5.435600000000E-02  4.260670000000E-01
 126  14     6.793320000000E-01  2.674280000000E-01  4.907870000000E-01
 127  14     8.515920000000E-01  4.078380000000E-01  4.938900000000E-01
 128  14     6.553000000000E-01  9.478100000000E-01  3.528890000000E-01
 129  14     9.142040000000E-01  6.893180000000E-01  3.591630000000E-01
 130  14     5.267060000000E-01  8.189270000000E-01  4.135010000000E-01
 131  14     7.830820000000E-01  5.643580000000E-01  4.216220000000E-01
 132  14     7.046180000000E-01  7.523140000000E-01  4.661140000000E-01
 133  14     9.161570000000E-01  9.577440000000E-01  4.949040000000E-01
 134  14     3.657390000000E-01  2.796110000000E-01  6.014580000000E-01
 135  14     2.114700000000E-02  9.855230000000E-01  6.293220000000E-01
 136  14     1.563100000000E-01  7.210130000000E-01  6.124570000000E-01
 137  14     6.318860000000E-01  3.877740000000E-01  5.824380000000E-01
 138  14     8.564420000000E-01  4.920550000000E-01  6.564050000000E-01
 139  14     2.954790000000E-01  9.960280000000E-01  6.316540000000E-01
 140  14     5.570310000000E-01  7.694810000000E-01  5.905590000000E-01
 141  14     9.146740000000E-01  7.515660000000E-01  5.330010000000E-01
 142  14     2.776950000000E-01  1.295250000000E-01  8.704400000000E-01
 143  14     8.614090000000E-01  4.489650000000E-01  9.460300000000E-01
 144  14     3.815440000000E-01  9.378930000000E-01  7.639260000000E-01
 145  14     7.900490000000E-01  5.565300000000E-02  7.101410000000E-01
 146  14     1.639440000000E-01  5.919740000000E-01  8.106750000000E-01
 147  14     7.990900000000E-01  7.530380000000E-01  7.065910000000E-01
 148  14     5.821930000000E-01  7.265090000000E-01  7.986280000000E-01
 149  14     3.543810000000E-01  6.460030000000E-01  9.059240000000E-01
 150  14     8.591920000000E-01  1.625340000000E-01  8.464840000000E-01
 151  14     1.043440000000E+00  2.362230000000E-01  9.975110000000E-01
 152  14     4.053270000000E-01  3.623380000000E-01  9.286710000000E-01
 153  14     8.172300000000E-02  3.311830000000E-01  8.083730000000E-01
 154  14     1.157210000000E-01  8.544410000000E-01  7.618370000000E-01
 155  14     6.485040000000E-01  2.267860000000E-01  9.557050000000E-01
 156  14     6.303220000000E-01  3.218370000000E-01  7.134360000000E-01
 157  14     5.678000000000E-02  9.744510000000E-01  8.903520000000E-01
 158  14     1.363930000000E-01  4.334840000000E-01  6.665070000000E-01
 159  14     5.308100000000E-01  8.201190000000E-01  9.384330000000E-01
 160  14     4.101480000000E-01  4.756680000000E-01  7.804140000000E-01
 161  14     7.745380000000E-01  4.964170000000E-01  7.970500000000E-01

 *******************************************************************************

 << INFORMATION >>: FROM NOW ON, ALL COORDINATES REFER TO THE PRIMITIVE CELL

 *******************************************************************************

 LATTICE PARAMETERS  (ANGSTROMS AND DEGREES) - PRIMITIVE CELL
       A          B          C         ALPHA     BETA     GAMMA        VOLUME
   10.83890   10.43230   21.18890    90.00000  90.00000  90.00000   2395.927588

 COORDINATES OF THE EQUIVALENT ATOMS (FRACTIONAL UNITS)

 N. ATOM EQUIV AT. N.          X                  Y                  Z

   1   1   1    1 H    -1.15803000000E-01 -5.52540000000E-02  7.75100000000E-03

   2   2   1    1 H     4.85789000000E-01  4.68791000000E-01  3.09110000000E-02

   3   3   1    1 H    -2.40218000000E-01 -1.64866000000E-01  6.69760000000E-02

   4   4   1    1 H     1.49474000000E-01  2.52407000000E-01 -4.28468000000E-01

   5   5   1    1 H     4.71009000000E-01 -3.25827000000E-01 -4.52187000000E-01

   6   6   1    1 H    -4.97940000000E-02 -3.85586000000E-01 -4.66692000000E-01

   7   7   1    1 H    -3.35350000000E-01 -2.81059000000E-01 -2.76729000000E-01

   8   8   1    1 H    -1.10548000000E-01 -2.51020000000E-01 -2.42540000000E-01

   9   9   1    1 H     1.85472000000E-01  1.92892000000E-01 -2.23820000000E-02

  10  10   1    1 H     4.41690000000E-01 -3.70541000000E-01 -1.35552000000E-01

  11  11   1    1 H    -1.99100000000E-03  1.00077000000E-01 -2.49110000000E-02

  12  12   1    1 H     3.75070000000E-02  2.70615000000E-01  6.47990000000E-02

  13  13   1    1 H    -4.04738000000E-01  1.22703000000E-01 -1.48180000000E-02

  14  14   1    8 O     2.58006000000E-01  3.52969000000E-01 -3.56186000000E-01

  15  15   1    8 O     1.56310000000E-01 -4.06043000000E-01 -3.40140000000E-01

  16  16   1    8 O    -4.88648000000E-01  3.12182000000E-01 -3.75181000000E-01

  17  17   1    8 O    -1.92076000000E-01  4.54371000000E-01 -4.28981000000E-01

  18  18   1    8 O     1.56809000000E-01  5.63920000000E-02 -3.67057000000E-01

  19  19   1    8 O    -4.52571000000E-01 -4.96390000000E-01 -4.56698000000E-01

  20  20   1    8 O    -1.57694000000E-01 -3.47360000000E-01 -3.50096000000E-01

  21  21   1    8 O     3.53085000000E-01  3.48700000000E-01 -4.68313000000E-01

  22  22   1    8 O    -3.11311000000E-01  1.08403000000E-01  4.85930000000E-01

  23  23   1    8 O    -9.89890000000E-02  7.01420000000E-02 -3.41798000000E-01

  24  24   1    8 O     3.06800000000E-03  4.59200000000E-02 -4.53264000000E-01

  25  25   1    8 O    -4.47706000000E-01 -2.96976000000E-01 -3.44705000000E-01

  26  26   1    8 O    -7.41500000000E-03  4.21255000000E-01 -3.57304000000E-01

  27  27   1    8 O     2.61487000000E-01 -1.64183000000E-01 -3.78421000000E-01

  28  28   1    8 O     1.70214000000E-01 -3.47095000000E-01 -4.56474000000E-01

  29  29   1    8 O     2.59160000000E-02 -1.83012000000E-01 -4.03175000000E-01

  30  30   1    8 O    -3.24953000000E-01 -2.46285000000E-01 -4.54883000000E-01

  31  31   1    8 O     4.59025000000E-01 -1.29130000000E-01 -4.42065000000E-01

  32  32   1    8 O     3.63031000000E-01  1.20531000000E-01 -4.06279000000E-01

  33  33   1    8 O     2.62476000000E-01 -1.57004000000E-01 -2.32493000000E-01

  34  34   1    8 O     1.73605000000E-01  2.34160000000E-01 -1.53892000000E-01

  35  35   1    8 O    -4.03390000000E-02  3.22801000000E-01 -5.21570000000E-02

  36  36   1    8 O     3.56051000000E-01  5.37480000000E-02 -1.84802000000E-01

  37  37   1    8 O    -3.26569000000E-01  1.64456000000E-01 -2.97211000000E-01

  38  38   1    8 O     2.17519000000E-01 -3.41825000000E-01 -1.23350000000E-01

  39  39   1    8 O    -1.76112000000E-01  6.89250000000E-02 -2.13642000000E-01

  40  40   1    8 O     3.86801000000E-01  4.05231000000E-01 -1.45167000000E-01

  41  41   1    8 O     2.65928000000E-01 -4.80201000000E-01 -2.34268000000E-01

  42  42   1    8 O     4.89340000000E-02 -1.02264000000E-01 -3.00624000000E-01

  43  43   1    8 O     1.47020000000E-02 -1.63297000000E-01 -7.43530000000E-02

  44  44   1    8 O    -1.35240000000E-01  4.95102000000E-01 -2.60732000000E-01

  45  45   1    8 O     4.63496000000E-01 -3.87600000000E-01 -2.04676000000E-01

  46  46   1    8 O    -2.46085000000E-01 -1.02307000000E-01 -3.02353000000E-01

  47  47   1    8 O    -4.61072000000E-01 -3.06890000000E-02 -4.51410000000E-02

  48  48   1    8 O    -4.01562000000E-01 -2.81556000000E-01 -7.74500000000E-03

  49  49   1    8 O    -4.90077000000E-01 -1.44262000000E-01 -2.29328000000E-01

  50  50   1    8 O    -4.15078000000E-01 -2.18618000000E-01 -1.25079000000E-01

  51  51   1    8 O    -4.96260000000E-02  8.61460000000E-02 -1.01600000000E-01

  52  52   1    8 O    -4.48287000000E-01  3.50734000000E-01 -5.31220000000E-02

  53  53   1    8 O    -2.72287000000E-01  1.89418000000E-01 -1.08083000000E-01

  54  54   1    8 O     6.22080000000E-02 -5.09690000000E-02 -1.83840000000E-01

  55  55   1    8 O     1.92745000000E-01  2.52610000000E-02 -8.73780000000E-02

  56  56   1    8 O     3.93683000000E-01 -4.65784000000E-01 -4.35250000000E-02

  57  57   1    8 O     7.56990000000E-02  4.73678000000E-01 -1.60998000000E-01

  58  58   1    8 O     1.13930000000E-01  3.40290000000E-01 -2.64013000000E-01

  59  59   1    8 O    -5.83670000000E-02  2.73816000000E-01 -1.87588000000E-01

  60  60   1    8 O     3.85277000000E-01  4.66200000000E-03 -3.06574000000E-01

  61  61   1    8 O     4.90512000000E-01  3.87419000000E-01 -2.67467000000E-01

  62  62   1    8 O    -3.02425000000E-01  3.67367000000E-01 -2.20853000000E-01

  63  63   1    8 O    -2.95766000000E-01 -3.70054000000E-01 -1.91033000000E-01

  64  64   1    8 O    -1.65576000000E-01  4.70785000000E-01 -1.32531000000E-01

  65  65   1    8 O     8.78390000000E-02 -3.01761000000E-01 -2.32043000000E-01

  66  66   1    8 O    -2.96812000000E-01  4.11022000000E-01 -3.44575000000E-01

  67  67   1    8 O    -3.54080000000E-02 -4.17850000000E-01 -4.99880000000E-02

  68  68   1    8 O     3.77622000000E-01 -2.03935000000E-01 -6.46740000000E-02

  69  69   1    8 O     3.90033000000E-01  1.99357000000E-01 -9.39800000000E-02

  70  70   1   14 SI   -1.82710000000E-02  1.91780000000E-02  4.14770000000E-02

  71  71   1   14 SI    2.55399000000E-01  3.06125000000E-01  1.70800000000E-02

  72  72   1   14 SI    1.38483000000E-01  4.39335000000E-01  8.62940000000E-02

  73  73   1   14 SI    3.97332000000E-01  1.91786000000E-01  8.76980000000E-02

  74  74   1   14 SI    3.08060000000E-02  3.15607000000E-01  1.60853000000E-01

  75  75   1   14 SI    2.81913000000E-01  7.16130000000E-02  1.61093000000E-01

  76  76   1   14 SI    1.53230000000E-01  1.91249000000E-01  2.29031000000E-01

  77  77   1   14 SI    3.95472000000E-01  4.34567000000E-01  2.24854000000E-01

  78  78   1   14 SI    7.14860000000E-02 -3.81503000000E-01  2.20710000000E-02

  79  79   1   14 SI    3.39429000000E-01 -1.33262000000E-01  4.43810000000E-02

  80  80   1   14 SI    1.60181000000E-01 -5.52530000000E-02  9.41380000000E-02

  81  81   1   14 SI    3.99075000000E-01 -3.13577000000E-01  1.01804000000E-01

  82  82   1   14 SI    3.13850000000E-02 -1.82782000000E-01  1.58829000000E-01

  83  83   1   14 SI    2.65968000000E-01 -4.45545000000E-01  1.57679000000E-01

  84  84   1   14 SI    1.55206000000E-01 -3.09398000000E-01  2.24933000000E-01

  85  85   1   14 SI    4.05215000000E-01 -5.70760000000E-02  2.26074000000E-01

  86  86   1   14 SI   -4.84343000000E-01  3.19370000000E-02  2.95460000000E-02

  87  87   1   14 SI   -2.30244000000E-01  3.22423000000E-01  3.21800000000E-02

  88  88   1   14 SI   -3.41428000000E-01  4.51858000000E-01  9.80470000000E-02

  89  89   1   14 SI   -1.02013000000E-01  1.91232000000E-01  9.95740000000E-02

  90  90   1   14 SI   -4.77215000000E-01  3.19282000000E-01  1.55578000000E-01

  91  91   1   14 SI   -2.28535000000E-01  6.27040000000E-02  1.64592000000E-01

  92  92   1   14 SI   -3.50425000000E-01  2.00258000000E-01  2.25358000000E-01

  93  93   1   14 SI   -8.93320000000E-02  4.47517000000E-01  2.24655000000E-01

  94  94   1   14 SI   -4.54799000000E-01 -4.00001000000E-01  3.70280000000E-02

  95  95   1   14 SI   -1.10336000000E-01 -2.52476000000E-01 -5.63060000000E-02

  96  96   1   14 SI   -3.36280000000E-01 -7.24580000000E-02  9.66550000000E-02

  97  97   1   14 SI   -9.72660000000E-02 -2.78875000000E-01  8.31700000000E-02

  98  98   1   14 SI   -4.65749000000E-01 -1.86831000000E-01  1.63224000000E-01

  99  99   1   14 SI   -2.04055000000E-01 -4.16502000000E-01  1.54891000000E-01

 100 100   1   14 SI   -3.35071000000E-01 -3.08583000000E-01  2.24461000000E-01

 101 101   1   14 SI   -9.06330000000E-02 -5.61840000000E-02  2.28284000000E-01

 102 102   1   14 SI    2.67350000000E-02  7.26280000000E-02  2.97551000000E-01

 103 103   1   14 SI    2.77391000000E-01  3.11650000000E-01  2.97644000000E-01

 104 104   1   14 SI    3.81600000000E-02 -4.34578000000E-01  2.93694000000E-01

 105 105   1   14 SI    2.76405000000E-01 -1.79896000000E-01  2.91377000000E-01

 106 106   1   14 SI   -4.73274000000E-01  7.35820000000E-02  2.90765000000E-01

 107 107   1   14 SI   -2.17489000000E-01  3.22458000000E-01  2.89427000000E-01

 108 108   1   14 SI   -4.69441000000E-01 -4.34383000000E-01  2.81719000000E-01

 109 109   1   14 SI   -2.14787000000E-01 -1.86083000000E-01  2.93400000000E-01

 110 110   1   14 SI    1.55489000000E-01  4.38506000000E-01  3.66224000000E-01

 111 111   1   14 SI    4.03188000000E-01  1.85436000000E-01  3.64376000000E-01

 112 112   1   14 SI    2.47650000000E-02  3.15124000000E-01  4.36113000000E-01

 113 113   1   14 SI    2.78224000000E-01  6.75880000000E-02  4.37701000000E-01

 114 114   1   14 SI    1.44341000000E-01  1.91186000000E-01 -4.90598000000E-01

 115 115   1   14 SI    4.38852000000E-01  4.51112000000E-01  4.90139000000E-01

 116 116   1   14 SI    1.60772000000E-01 -4.93410000000E-02  3.61729000000E-01

 117 117   1   14 SI    4.10439000000E-01 -3.12144000000E-01  3.48398000000E-01

 118 118   1   14 SI    3.42650000000E-02 -1.79317000000E-01  4.25358000000E-01

 119 119   1   14 SI    3.00521000000E-01 -4.32476000000E-01  4.21673000000E-01

 120 120   1   14 SI    2.06485000000E-01 -2.70078000000E-01  4.76017000000E-01

 121 121   1   14 SI    3.77379000000E-01 -1.16979000000E-01  4.86384000000E-01

 122 122   1   14 SI   -3.43615000000E-01  4.54002000000E-01  3.49928000000E-01

 123 123   1   14 SI   -1.02301000000E-01  2.01284000000E-01  3.63602000000E-01

 124 124   1   14 SI   -4.62783000000E-01  3.28569000000E-01  4.14515000000E-01

 125 125   1   14 SI   -2.20756000000E-01  5.43560000000E-02  4.26067000000E-01

 126 126   1   14 SI   -3.20668000000E-01  2.67428000000E-01  4.90787000000E-01

 127 127   1   14 SI   -1.48408000000E-01  4.07838000000E-01  4.93890000000E-01

 128 128   1   14 SI   -3.44700000000E-01 -5.21900000000E-02  3.52889000000E-01

 129 129   1   14 SI   -8.57960000000E-02 -3.10682000000E-01  3.59163000000E-01

 130 130   1   14 SI   -4.73294000000E-01 -1.81073000000E-01  4.13501000000E-01

 131 131   1   14 SI   -2.16918000000E-01 -4.35642000000E-01  4.21622000000E-01

 132 132   1   14 SI   -2.95382000000E-01 -2.47686000000E-01  4.66114000000E-01

 133 133   1   14 SI   -8.38430000000E-02 -4.22560000000E-02  4.94904000000E-01

 134 134   1   14 SI    3.65739000000E-01  2.79611000000E-01 -3.98542000000E-01

 135 135   1   14 SI    2.11470000000E-02 -1.44770000000E-02 -3.70678000000E-01

 136 136   1   14 SI    1.56310000000E-01 -2.78987000000E-01 -3.87543000000E-01

 137 137   1   14 SI   -3.68114000000E-01  3.87774000000E-01 -4.17562000000E-01

 138 138   1   14 SI   -1.43558000000E-01  4.92055000000E-01 -3.43595000000E-01

 139 139   1   14 SI    2.95479000000E-01 -3.97200000000E-03 -3.68346000000E-01

 140 140   1   14 SI   -4.42969000000E-01 -2.30519000000E-01 -4.09441000000E-01

 141 141   1   14 SI   -8.53260000000E-02 -2.48434000000E-01 -4.66999000000E-01

 142 142   1   14 SI    2.77695000000E-01  1.29525000000E-01 -1.29560000000E-01

 143 143   1   14 SI   -1.38591000000E-01  4.48965000000E-01 -5.39700000000E-02

 144 144   1   14 SI    3.81544000000E-01 -6.21070000000E-02 -2.36074000000E-01

 145 145   1   14 SI   -2.09951000000E-01  5.56530000000E-02 -2.89859000000E-01

 146 146   1   14 SI    1.63944000000E-01 -4.08026000000E-01 -1.89325000000E-01

 147 147   1   14 SI   -2.00910000000E-01 -2.46962000000E-01 -2.93409000000E-01

 148 148   1   14 SI   -4.17807000000E-01 -2.73491000000E-01 -2.01372000000E-01

 149 149   1   14 SI    3.54381000000E-01 -3.53997000000E-01 -9.40760000000E-02

 150 150   1   14 SI   -1.40808000000E-01  1.62534000000E-01 -1.53516000000E-01

 151 151   1   14 SI    4.34400000000E-02  2.36223000000E-01 -2.48900000000E-03

 152 152   1   14 SI    4.05327000000E-01  3.62338000000E-01 -7.13290000000E-02

 153 153   1   14 SI    8.17230000000E-02  3.31183000000E-01 -1.91627000000E-01

 154 154   1   14 SI    1.15721000000E-01 -1.45559000000E-01 -2.38163000000E-01

 155 155   1   14 SI   -3.51496000000E-01  2.26786000000E-01 -4.42950000000E-02

 156 156   1   14 SI   -3.69678000000E-01  3.21837000000E-01 -2.86564000000E-01

 157 157   1   14 SI    5.67800000000E-02 -2.55490000000E-02 -1.09648000000E-01

 158 158   1   14 SI    1.36393000000E-01  4.33484000000E-01 -3.33493000000E-01

 159 159   1   14 SI   -4.69190000000E-01 -1.79881000000E-01 -6.15670000000E-02

 160 160   1   14 SI    4.10148000000E-01  4.75668000000E-01 -2.19586000000E-01

 161 161   1   14 SI   -2.25462000000E-01  4.96417000000E-01 -2.02950000000E-01

 NUMBER OF SYMMETRY OPERATORS         :    1
 *******************************************************************************
 * GEOMETRY EDITING - INPUT COORDINATES ARE GIVEN IN ANGSTROM         
 *******************************************************************************

 GCALCO - MAX INDICES DIRECT LATTICE VECTOR    18    19     9
 NO.OF VECTORS CREATED 6999 STARS 1062 RMAX   299.92671 BOHR

 GEOMETRY FOR WAVE FUNCTION - DIMENSIONALITY OF THE SYSTEM    3
 (NON PERIODIC DIRECTION: LATTICE PARAMETER FORMALLY SET TO 500)
 *******************************************************************************
 LATTICE PARAMETERS (ANGSTROMS AND DEGREES) - BOHR = 0.5291772083 ANGSTROM
 PRIMITIVE CELL - CENTRING CODE 1/0 VOLUME=  2395.927588 - DENSITY  2.414 g/cm^3
         A              B              C           ALPHA      BETA       GAMMA 
    10.83890000    10.43230000    21.18890000    90.000000  90.000000  90.000000
 *******************************************************************************
 ATOMS IN THE ASYMMETRIC UNIT  161 - ATOMS IN THE UNIT CELL:  161
     ATOM              X/A                 Y/B                 Z/C    
 *******************************************************************************
   1 T   1 H    -1.158030000000E-01 -5.525400000000E-02  7.751000000000E-03
   2 T   1 H     4.857890000000E-01  4.687910000000E-01  3.091100000000E-02
   3 T   1 H    -2.402180000000E-01 -1.648660000000E-01  6.697600000000E-02
   4 T   1 H     1.494740000000E-01  2.524070000000E-01 -4.284680000000E-01
   5 T   1 H     4.710090000000E-01 -3.258270000000E-01 -4.521870000000E-01
   6 T   1 H    -4.979400000000E-02 -3.855860000000E-01 -4.666920000000E-01
   7 T   1 H    -3.353500000000E-01 -2.810590000000E-01 -2.767290000000E-01
   8 T   1 H    -1.105480000000E-01 -2.510200000000E-01 -2.425400000000E-01
   9 T   1 H     1.854720000000E-01  1.928920000000E-01 -2.238200000000E-02
  10 T   1 H     4.416900000000E-01 -3.705410000000E-01 -1.355520000000E-01
  11 T   1 H    -1.991000000000E-03  1.000770000000E-01 -2.491100000000E-02
  12 T   1 H     3.750700000000E-02  2.706150000000E-01  6.479900000000E-02
  13 T   1 H    -4.047380000000E-01  1.227030000000E-01 -1.481800000000E-02
  14 T   8 O     2.580060000000E-01  3.529690000000E-01 -3.561860000000E-01
  15 T   8 O     1.563100000000E-01 -4.060430000000E-01 -3.401400000000E-01
  16 T   8 O    -4.886480000000E-01  3.121820000000E-01 -3.751810000000E-01
  17 T   8 O    -1.920760000000E-01  4.543710000000E-01 -4.289810000000E-01
  18 T   8 O     1.568090000000E-01  5.639200000000E-02 -3.670570000000E-01
  19 T   8 O    -4.525710000000E-01 -4.963900000000E-01 -4.566980000000E-01
  20 T   8 O    -1.576940000000E-01 -3.473600000000E-01 -3.500960000000E-01
  21 T   8 O     3.530850000000E-01  3.487000000000E-01 -4.683130000000E-01
  22 T   8 O    -3.113110000000E-01  1.084030000000E-01  4.859300000000E-01
  23 T   8 O    -9.898900000000E-02  7.014200000000E-02 -3.417980000000E-01
  24 T   8 O     3.068000000000E-03  4.592000000000E-02 -4.532640000000E-01
  25 T   8 O    -4.477060000000E-01 -2.969760000000E-01 -3.447050000000E-01
  26 T   8 O    -7.415000000000E-03  4.212550000000E-01 -3.573040000000E-01
  27 T   8 O     2.614870000000E-01 -1.641830000000E-01 -3.784210000000E-01
  28 T   8 O     1.702140000000E-01 -3.470950000000E-01 -4.564740000000E-01
  29 T   8 O     2.591600000000E-02 -1.830120000000E-01 -4.031750000000E-01
  30 T   8 O    -3.249530000000E-01 -2.462850000000E-01 -4.548830000000E-01
  31 T   8 O     4.590250000000E-01 -1.291300000000E-01 -4.420650000000E-01
  32 T   8 O     3.630310000000E-01  1.205310000000E-01 -4.062790000000E-01
  33 T   8 O     2.624760000000E-01 -1.570040000000E-01 -2.324930000000E-01
  34 T   8 O     1.736050000000E-01  2.341600000000E-01 -1.538920000000E-01
  35 T   8 O    -4.033900000000E-02  3.228010000000E-01 -5.215700000000E-02
  36 T   8 O     3.560510000000E-01  5.374800000000E-02 -1.848020000000E-01
  37 T   8 O    -3.265690000000E-01  1.644560000000E-01 -2.972110000000E-01
  38 T   8 O     2.175190000000E-01 -3.418250000000E-01 -1.233500000000E-01
  39 T   8 O    -1.761120000000E-01  6.892500000000E-02 -2.136420000000E-01
  40 T   8 O     3.868010000000E-01  4.052310000000E-01 -1.451670000000E-01
  41 T   8 O     2.659280000000E-01 -4.802010000000E-01 -2.342680000000E-01
  42 T   8 O     4.893400000000E-02 -1.022640000000E-01 -3.006240000000E-01
  43 T   8 O     1.470200000000E-02 -1.632970000000E-01 -7.435300000000E-02
  44 T   8 O    -1.352400000000E-01  4.951020000000E-01 -2.607320000000E-01
  45 T   8 O     4.634960000000E-01 -3.876000000000E-01 -2.046760000000E-01
  46 T   8 O    -2.460850000000E-01 -1.023070000000E-01 -3.023530000000E-01
  47 T   8 O    -4.610720000000E-01 -3.068900000000E-02 -4.514100000000E-02
  48 T   8 O    -4.015620000000E-01 -2.815560000000E-01 -7.745000000000E-03
  49 T   8 O    -4.900770000000E-01 -1.442620000000E-01 -2.293280000000E-01
  50 T   8 O    -4.150780000000E-01 -2.186180000000E-01 -1.250790000000E-01
  51 T   8 O    -4.962600000000E-02  8.614600000000E-02 -1.016000000000E-01
  52 T   8 O    -4.482870000000E-01  3.507340000000E-01 -5.312200000000E-02
  53 T   8 O    -2.722870000000E-01  1.894180000000E-01 -1.080830000000E-01
  54 T   8 O     6.220800000000E-02 -5.096900000000E-02 -1.838400000000E-01
  55 T   8 O     1.927450000000E-01  2.526100000000E-02 -8.737800000000E-02
  56 T   8 O     3.936830000000E-01 -4.657840000000E-01 -4.352500000000E-02
  57 T   8 O     7.569900000000E-02  4.736780000000E-01 -1.609980000000E-01
  58 T   8 O     1.139300000000E-01  3.402900000000E-01 -2.640130000000E-01
  59 T   8 O    -5.836700000000E-02  2.738160000000E-01 -1.875880000000E-01
  60 T   8 O     3.852770000000E-01  4.662000000000E-03 -3.065740000000E-01
  61 T   8 O     4.905120000000E-01  3.874190000000E-01 -2.674670000000E-01
  62 T   8 O    -3.024250000000E-01  3.673670000000E-01 -2.208530000000E-01
  63 T   8 O    -2.957660000000E-01 -3.700540000000E-01 -1.910330000000E-01
  64 T   8 O    -1.655760000000E-01  4.707850000000E-01 -1.325310000000E-01
  65 T   8 O     8.783900000000E-02 -3.017610000000E-01 -2.320430000000E-01
  66 T   8 O    -2.968120000000E-01  4.110220000000E-01 -3.445750000000E-01
  67 T   8 O    -3.540800000000E-02 -4.178500000000E-01 -4.998800000000E-02
  68 T   8 O     3.776220000000E-01 -2.039350000000E-01 -6.467400000000E-02
  69 T   8 O     3.900330000000E-01  1.993570000000E-01 -9.398000000000E-02
  70 T  14 SI   -1.827100000000E-02  1.917800000000E-02  4.147700000000E-02
  71 T  14 SI    2.553990000000E-01  3.061250000000E-01  1.708000000000E-02
  72 T  14 SI    1.384830000000E-01  4.393350000000E-01  8.629400000000E-02
  73 T  14 SI    3.973320000000E-01  1.917860000000E-01  8.769800000000E-02
  74 T  14 SI    3.080600000000E-02  3.156070000000E-01  1.608530000000E-01
  75 T  14 SI    2.819130000000E-01  7.161300000000E-02  1.610930000000E-01
  76 T  14 SI    1.532300000000E-01  1.912490000000E-01  2.290310000000E-01
  77 T  14 SI    3.954720000000E-01  4.345670000000E-01  2.248540000000E-01
  78 T  14 SI    7.148600000000E-02 -3.815030000000E-01  2.207100000000E-02
  79 T  14 SI    3.394290000000E-01 -1.332620000000E-01  4.438100000000E-02
  80 T  14 SI    1.601810000000E-01 -5.525300000000E-02  9.413800000000E-02
  81 T  14 SI    3.990750000000E-01 -3.135770000000E-01  1.018040000000E-01
  82 T  14 SI    3.138500000000E-02 -1.827820000000E-01  1.588290000000E-01
  83 T  14 SI    2.659680000000E-01 -4.455450000000E-01  1.576790000000E-01
  84 T  14 SI    1.552060000000E-01 -3.093980000000E-01  2.249330000000E-01
  85 T  14 SI    4.052150000000E-01 -5.707600000000E-02  2.260740000000E-01
  86 T  14 SI   -4.843430000000E-01  3.193700000000E-02  2.954600000000E-02
  87 T  14 SI   -2.302440000000E-01  3.224230000000E-01  3.218000000000E-02
  88 T  14 SI   -3.414280000000E-01  4.518580000000E-01  9.804700000000E-02
  89 T  14 SI   -1.020130000000E-01  1.912320000000E-01  9.957400000000E-02
  90 T  14 SI   -4.772150000000E-01  3.192820000000E-01  1.555780000000E-01
  91 T  14 SI   -2.285350000000E-01  6.270400000000E-02  1.645920000000E-01
  92 T  14 SI   -3.504250000000E-01  2.002580000000E-01  2.253580000000E-01
  93 T  14 SI   -8.933200000000E-02  4.475170000000E-01  2.246550000000E-01
  94 T  14 SI   -4.547990000000E-01 -4.000010000000E-01  3.702800000000E-02
  95 T  14 SI   -1.103360000000E-01 -2.524760000000E-01 -5.630600000000E-02
  96 T  14 SI   -3.362800000000E-01 -7.245800000000E-02  9.665500000000E-02
  97 T  14 SI   -9.726600000000E-02 -2.788750000000E-01  8.317000000000E-02
  98 T  14 SI   -4.657490000000E-01 -1.868310000000E-01  1.632240000000E-01
  99 T  14 SI   -2.040550000000E-01 -4.165020000000E-01  1.548910000000E-01
 100 T  14 SI   -3.350710000000E-01 -3.085830000000E-01  2.244610000000E-01
 101 T  14 SI   -9.063300000000E-02 -5.618400000000E-02  2.282840000000E-01
 102 T  14 SI    2.673500000000E-02  7.262800000000E-02  2.975510000000E-01
 103 T  14 SI    2.773910000000E-01  3.116500000000E-01  2.976440000000E-01
 104 T  14 SI    3.816000000000E-02 -4.345780000000E-01  2.936940000000E-01
 105 T  14 SI    2.764050000000E-01 -1.798960000000E-01  2.913770000000E-01
 106 T  14 SI   -4.732740000000E-01  7.358200000000E-02  2.907650000000E-01
 107 T  14 SI   -2.174890000000E-01  3.224580000000E-01  2.894270000000E-01
 108 T  14 SI   -4.694410000000E-01 -4.343830000000E-01  2.817190000000E-01
 109 T  14 SI   -2.147870000000E-01 -1.860830000000E-01  2.934000000000E-01
 110 T  14 SI    1.554890000000E-01  4.385060000000E-01  3.662240000000E-01
 111 T  14 SI    4.031880000000E-01  1.854360000000E-01  3.643760000000E-01
 112 T  14 SI    2.476500000000E-02  3.151240000000E-01  4.361130000000E-01
 113 T  14 SI    2.782240000000E-01  6.758800000000E-02  4.377010000000E-01
 114 T  14 SI    1.443410000000E-01  1.911860000000E-01 -4.905980000000E-01
 115 T  14 SI    4.388520000000E-01  4.511120000000E-01  4.901390000000E-01
 116 T  14 SI    1.607720000000E-01 -4.934100000000E-02  3.617290000000E-01
 117 T  14 SI    4.104390000000E-01 -3.121440000000E-01  3.483980000000E-01
 118 T  14 SI    3.426500000000E-02 -1.793170000000E-01  4.253580000000E-01
 119 T  14 SI    3.005210000000E-01 -4.324760000000E-01  4.216730000000E-01
 120 T  14 SI    2.064850000000E-01 -2.700780000000E-01  4.760170000000E-01
 121 T  14 SI    3.773790000000E-01 -1.169790000000E-01  4.863840000000E-01
 122 T  14 SI   -3.436150000000E-01  4.540020000000E-01  3.499280000000E-01
 123 T  14 SI   -1.023010000000E-01  2.012840000000E-01  3.636020000000E-01
 124 T  14 SI   -4.627830000000E-01  3.285690000000E-01  4.145150000000E-01
 125 T  14 SI   -2.207560000000E-01  5.435600000000E-02  4.260670000000E-01
 126 T  14 SI   -3.206680000000E-01  2.674280000000E-01  4.907870000000E-01
 127 T  14 SI   -1.484080000000E-01  4.078380000000E-01  4.938900000000E-01
 128 T  14 SI   -3.447000000000E-01 -5.219000000000E-02  3.528890000000E-01
 129 T  14 SI   -8.579600000000E-02 -3.106820000000E-01  3.591630000000E-01
 130 T  14 SI   -4.732940000000E-01 -1.810730000000E-01  4.135010000000E-01
 131 T  14 SI   -2.169180000000E-01 -4.356420000000E-01  4.216220000000E-01
 132 T  14 SI   -2.953820000000E-01 -2.476860000000E-01  4.661140000000E-01
 133 T  14 SI   -8.384300000000E-02 -4.225600000000E-02  4.949040000000E-01
 134 T  14 SI    3.657390000000E-01  2.796110000000E-01 -3.985420000000E-01
 135 T  14 SI    2.114700000000E-02 -1.447700000000E-02 -3.706780000000E-01
 136 T  14 SI    1.563100000000E-01 -2.789870000000E-01 -3.875430000000E-01
 137 T  14 SI   -3.681140000000E-01  3.877740000000E-01 -4.175620000000E-01
 138 T  14 SI   -1.435580000000E-01  4.920550000000E-01 -3.435950000000E-01
 139 T  14 SI    2.954790000000E-01 -3.972000000000E-03 -3.683460000000E-01
 140 T  14 SI   -4.429690000000E-01 -2.305190000000E-01 -4.094410000000E-01
 141 T  14 SI   -8.532600000000E-02 -2.484340000000E-01 -4.669990000000E-01
 142 T  14 SI    2.776950000000E-01  1.295250000000E-01 -1.295600000000E-01
 143 T  14 SI   -1.385910000000E-01  4.489650000000E-01 -5.397000000000E-02
 144 T  14 SI    3.815440000000E-01 -6.210700000000E-02 -2.360740000000E-01
 145 T  14 SI   -2.099510000000E-01  5.565300000000E-02 -2.898590000000E-01
 146 T  14 SI    1.639440000000E-01 -4.080260000000E-01 -1.893250000000E-01
 147 T  14 SI   -2.009100000000E-01 -2.469620000000E-01 -2.934090000000E-01
 148 T  14 SI   -4.178070000000E-01 -2.734910000000E-01 -2.013720000000E-01
 149 T  14 SI    3.543810000000E-01 -3.539970000000E-01 -9.407600000000E-02
 150 T  14 SI   -1.408080000000E-01  1.625340000000E-01 -1.535160000000E-01
 151 T  14 SI    4.344000000000E-02  2.362230000000E-01 -2.489000000000E-03
 152 T  14 SI    4.053270000000E-01  3.623380000000E-01 -7.132900000000E-02
 153 T  14 SI    8.172300000000E-02  3.311830000000E-01 -1.916270000000E-01
 154 T  14 SI    1.157210000000E-01 -1.455590000000E-01 -2.381630000000E-01
 155 T  14 SI   -3.514960000000E-01  2.267860000000E-01 -4.429500000000E-02
 156 T  14 SI   -3.696780000000E-01  3.218370000000E-01 -2.865640000000E-01
 157 T  14 SI    5.678000000000E-02 -2.554900000000E-02 -1.096480000000E-01
 158 T  14 SI    1.363930000000E-01  4.334840000000E-01 -3.334930000000E-01
 159 T  14 SI   -4.691900000000E-01 -1.798810000000E-01 -6.156700000000E-02
 160 T  14 SI    4.101480000000E-01  4.756680000000E-01 -2.195860000000E-01
 161 T  14 SI   -2.254620000000E-01  4.964170000000E-01 -2.029500000000E-01

 T = ATOM BELONGING TO THE ASYMMETRIC UNIT

 ****   1 SYMMOPS - TRANSLATORS IN FRACTIONAL UNITS
  V INV                   ROTATION MATRICES                       TRANSLATOR
  1  1  1.00  0.00  0.00  0.00  1.00  0.00  0.00  0.00  1.00    0.00  0.00  0.00

 DIRECT LATTICE VECTORS CARTESIAN COMPONENTS (ANGSTROM)
          X                    Y                    Z
   0.108389000000E+02   0.663691209564E-15   0.000000000000E+00
   0.000000000000E+00   0.104323000000E+02   0.000000000000E+00
   0.129744592812E-14   0.129744592812E-14   0.211889000000E+02


 CARTESIAN COORDINATES - PRIMITIVE CELL
 *******************************************************************************
 *      ATOM          X(ANGSTROM)         Y(ANGSTROM)         Z(ANGSTROM)
 *******************************************************************************
   1     1 H    -1.255177136700E+00 -5.764263042000E-01  1.642351639000E-01
   2     1 H     5.265418392100E+00  4.890568349300E+00  6.549700879000E-01
   3     1 H    -2.603698880200E+00 -1.719931571800E+00  1.419147766400E+00
   4     1 H     1.620133738600E+00  2.633185546100E+00 -9.078765605200E+00
   5     1 H     5.105219450100E+00 -3.399125012100E+00 -9.581345124300E+00
   6     1 H    -5.397121866000E-01 -4.022548827800E+00 -9.888690118800E+00
   7     1 H    -3.634825115000E+00 -2.932091805700E+00 -5.863583108100E+00
   8     1 H    -1.198218717200E+00 -2.618715946000E+00 -5.139155806000E+00
   9     1 H     2.010312460800E+00  2.012307211600E+00 -4.742499598000E-01
  10     1 H     4.787433741000E+00 -3.865594874300E+00 -2.872197772800E+00
  11     1 H    -2.158024990000E-02  1.044033287100E+00 -5.278366879000E-01
  12     1 H     4.065346223000E-01  2.823136864500E+00  1.373019531100E+00
  13     1 H    -4.386914708200E+00  1.280074506900E+00 -3.139771202000E-01
  14     8 O     2.796501233400E+00  3.682278498700E+00 -7.547189535400E+00
  15     8 O     1.694228459000E+00 -4.235962388900E+00 -7.207192446000E+00
  16     8 O    -5.296406807200E+00  3.256776278600E+00 -7.949672690900E+00
  17     8 O    -2.081892556400E+00  4.740134583300E+00 -9.089635510900E+00
  18     8 O     1.699637070100E+00  5.882982616000E-01 -7.777534067300E+00
  19     8 O    -4.905371811900E+00 -5.178489397000E+00 -9.676928252200E+00
  20     8 O    -1.709229496600E+00 -3.623763728000E+00 -7.418149134400E+00
  21     8 O     3.827053006500E+00  3.637743010000E+00 -9.923037325700E+00
  22     8 O    -3.374268797900E+00  1.130892616900E+00  1.029632217700E+01
  23     8 O    -1.072931872100E+00  7.317423866000E-01 -7.242323642200E+00
  24     8 O     3.325374520000E-02  4.790512160000E-01 -9.604165569600E+00
  25     8 O    -4.852640563400E+00 -3.098142724800E+00 -7.303919774500E+00
  26     8 O    -8.037044350000E-02  4.394658536500E+00 -7.570878725600E+00
  27     8 O     2.834231444300E+00 -1.712806310900E+00 -8.018324726900E+00
  28     8 O     1.844932524600E+00 -3.620999168500E+00 -9.672181938600E+00
  29     8 O     2.809009324000E-01 -1.909236087600E+00 -8.542834757500E+00
  30     8 O    -3.522133071700E+00 -2.569319005500E+00 -9.638470398700E+00
  31     8 O     4.975326072500E+00 -1.347122899000E+00 -9.366871078500E+00
  32     8 O     3.934856705900E+00  1.257415551300E+00 -8.608605103100E+00
  33     8 O     2.844951116400E+00 -1.637912829200E+00 -4.926270927700E+00
  34     8 O     1.881687234500E+00  2.442827368000E+00 -3.260802198800E+00
  35     8 O    -4.372303871000E-01  3.367556872300E+00 -1.105149457300E+00
  36     8 O     3.859201183900E+00  5.607152604000E-01 -3.915751097800E+00
  37     8 O    -3.539648734100E+00  1.715654328800E+00 -6.297574157900E+00
  38     8 O     2.357666689100E+00 -3.566020947500E+00 -2.613650815000E+00
  39     8 O    -1.908860356800E+00  7.190462775000E-01 -4.526838973800E+00
  40     8 O     4.192497358900E+00  4.227491361300E+00 -3.075929046300E+00
  41     8 O     2.882366999200E+00 -5.009600892300E+00 -4.963881225200E+00
  42     8 O     5.303907326000E-01 -1.066848727200E+00 -6.369891873600E+00
  43     8 O     1.593535078000E-01 -1.703563293100E+00 -1.575458281700E+00
  44     8 O    -1.465852836000E+00  5.165052594600E+00 -5.524624274800E+00
  45     8 O     5.023786794400E+00 -4.043559480000E+00 -4.336859296400E+00
  46     8 O    -2.667290706500E+00 -1.067297316100E+00 -6.406527481700E+00
  47     8 O    -4.997513300800E+00 -3.201568547000E-01 -9.564881349000E-01
  48     8 O    -4.352490361800E+00 -2.937276658800E+00 -1.641080305000E-01
  49     8 O    -5.311895595300E+00 -1.504984462600E+00 -4.859208059200E+00
  50     8 O    -4.498988934200E+00 -2.280688561400E+00 -2.650286423100E+00
  51     8 O    -5.378912514000E-01  8.987009158000E-01 -2.152792240000E+00
  52     8 O    -4.858937964300E+00  3.658962308200E+00 -1.125596745800E+00
  53     8 O    -2.951291564300E+00  1.976065401400E+00 -2.290159878700E+00
  54     8 O     6.742662912000E-01 -5.317238987000E-01 -3.895367376000E+00
  55     8 O     2.089143780500E+00  2.635303303000E-01 -1.851443704200E+00
  56     8 O     4.267090668700E+00 -4.859198423200E+00 -9.222468725000E-01
  57     8 O     8.204938911000E-01  4.941550999400E+00 -3.411370522200E+00
  58     8 O     1.234875877000E+00  3.550007367000E+00 -5.594145055700E+00
  59     8 O    -6.326340763000E-01  2.856530656800E+00 -3.974783373200E+00
  60     8 O     4.175978875300E+00  4.863538260000E-02 -6.495965828600E+00
  61     8 O     5.316610516800E+00  4.041671233700E+00 -5.667331516300E+00
  62     8 O    -3.277954332500E+00  3.832482754100E+00 -4.679632131700E+00
  63     8 O    -3.205778097400E+00 -3.860514344200E+00 -4.047779133700E+00
  64     8 O    -1.794661706400E+00  4.911370355500E+00 -2.808186105900E+00
  65     8 O     9.520781371000E-01 -3.148061280300E+00 -4.916735922700E+00
  66     8 O    -3.217115586800E+00  4.287904810600E+00 -7.301165217500E+00
  67     8 O    -3.837837712000E-01 -4.359136555000E+00 -1.059190733200E+00
  68     8 O     4.093007095800E+00 -2.127511100500E+00 -1.370370918600E+00
  69     8 O     4.227528683700E+00  2.079752031100E+00 -1.991332822000E+00
  70    14 SI   -1.980375419000E-01  2.000706494000E-01  8.788520053000E-01
  71    14 SI    2.768244221100E+00  3.193587837500E+00  3.619064120000E-01
  72    14 SI    1.501003388700E+00  4.583274520500E+00  1.828474936600E+00
  73    14 SI    4.306641814800E+00  2.000769087800E+00  1.858224152200E+00
  74    14 SI    3.339031534000E-01  3.292506906100E+00  3.408298131700E+00
  75    14 SI    3.055626815700E+00  7.470882999000E-01  3.413383467700E+00
  76    14 SI    1.660844647000E+00  1.995166942700E+00  4.852914955900E+00
  77    14 SI    4.286481460800E+00  4.533533314100E+00  4.764408920600E+00
  78    14 SI    7.748296054000E-01 -3.979953746900E+00  4.676602119000E-01
  79    14 SI    3.679036988100E+00 -1.390229162600E+00  9.403845709000E-01
  80    14 SI    1.736185840900E+00 -5.764158719000E-01  1.994680668200E+00
  81    14 SI    4.325534017500E+00 -3.271329337100E+00  2.157114775600E+00
  82    14 SI    3.401788765000E-01 -1.906836658600E+00  3.365411798100E+00
  83    14 SI    2.882800555200E+00 -4.648059103500E+00  3.341044563100E+00
  84    14 SI    1.682262313400E+00 -3.227732755400E+00  4.766082843700E+00
  85    14 SI    4.392084863500E+00 -5.954339548000E-01  4.790259378600E+00
  86    14 SI   -5.249745342700E+00  3.331763651000E-01  6.260472394000E-01
  87    14 SI   -2.495591691600E+00  3.363613462900E+00  6.818588020000E-01
  88    14 SI   -3.700703949200E+00  4.713918213400E+00  2.077508078300E+00
  89    14 SI   -1.105708705700E+00  1.994989593600E+00  2.109863528600E+00
  90    14 SI   -5.172485663500E+00  3.330845608600E+00  3.296526684200E+00
  91    14 SI   -2.477068011500E+00  6.541469392000E-01  3.487523428800E+00
  92    14 SI   -3.798221532500E+00  2.089151533400E+00  4.775088126200E+00
  93    14 SI   -9.682606148000E-01  4.668631599100E+00  4.760192329500E+00
  94    14 SI   -4.929520881100E+00 -4.172930432300E+00  7.845825892000E-01
  95    14 SI   -1.195920870400E+00 -2.633905374800E+00 -1.193062203400E+00
  96    14 SI   -3.644905292000E+00 -7.559035934000E-01  2.048013129500E+00
  97    14 SI   -1.054256447400E+00 -2.909307662500E+00  1.762280813000E+00
  98    14 SI   -5.048206836100E+00 -1.949077041300E+00  3.458537013600E+00
  99    14 SI   -2.211731739500E+00 -4.345073814600E+00  3.281969909900E+00
 100    14 SI   -3.631801061900E+00 -3.219230430900E+00  4.756081682900E+00
 101    14 SI   -9.823620237000E-01 -5.861283432000E-01  4.837086847600E+00
 102    14 SI    2.897779915000E-01  7.576770844000E-01  6.304778383900E+00
 103    14 SI    3.006613309900E+00  3.251226295000E+00  6.306748951600E+00
 104    14 SI    4.136124240000E-01 -4.533648069400E+00  6.223052796600E+00
 105    14 SI    2.995926154500E+00 -1.876729040800E+00  6.173958115300E+00
 106    14 SI   -5.129769558600E+00  7.676294986000E-01  6.160990508500E+00
 107    14 SI   -2.357341522100E+00  3.363978593400E+00  6.132639760300E+00
 108    14 SI   -5.088224054900E+00 -4.531613770900E+00  5.969315719100E+00
 109    14 SI   -2.328054814300E+00 -1.941273680900E+00  6.216823260000E+00
 110    14 SI    1.685329722100E+00  4.574626143800E+00  7.759883713600E+00
 111    14 SI    4.370114413200E+00  1.934523982800E+00  7.720726626400E+00
 112    14 SI    2.684253585000E-01  3.287468105200E+00  9.240754745700E+00
 113    14 SI    3.015642113600E+00  7.050982924000E-01  9.274402718900E+00
 114    14 SI    1.564497664900E+00  1.994509707800E+00 -1.039523196220E+01
 115    14 SI    4.756672942800E+00  4.706135717600E+00  1.038550625710E+01
 116    14 SI    1.742591630800E+00 -5.147401143000E-01  7.664639608100E+00
 117    14 SI    4.448707277100E+00 -3.256379851200E+00  7.382170382200E+00
 118    14 SI    3.713949085000E-01 -1.870688739100E+00  9.012868126200E+00
 119    14 SI    3.257317066900E+00 -4.511719374800E+00  8.934787029700E+00
 120    14 SI    2.238070266500E+00 -2.817534719400E+00  1.008627661130E+01
 121    14 SI    4.090373243100E+00 -1.220360021700E+00  1.030594193760E+01
 122    14 SI   -3.724408623500E+00  4.736285064600E+00  7.414589399200E+00
 123    14 SI   -1.108830308900E+00  2.099855073200E+00  7.704326417800E+00
 124    14 SI   -5.016058658700E+00  3.427730378700E+00  8.783116883500E+00
 125    14 SI   -2.392752208400E+00  5.670580988000E-01  9.027891056300E+00
 126    14 SI   -3.475688385200E+00  2.789889124400E+00  1.039923666430E+01
 127    14 SI   -1.608579471200E+00  4.254688367400E+00  1.046498582100E+01
 128    14 SI   -3.736168830000E+00 -5.444617370000E-01  7.477329732100E+00
 129    14 SI   -9.299342644000E-01 -3.241127828600E+00  7.610268890700E+00
 130    14 SI   -5.129986336600E+00 -1.889007857900E+00  8.761631338900E+00
 131    14 SI   -2.351152510200E+00 -4.544748036600E+00  8.933706395800E+00
 132    14 SI   -3.201615959800E+00 -2.583934657800E+00  9.876442934600E+00
 133    14 SI   -9.087658927000E-01 -4.408272688000E-01  1.048647136560E+01
 134    14 SI    3.964208447100E+00  2.916985835300E+00 -8.444666583800E+00
 135    14 SI    2.292102183000E-01 -1.510284071000E-01 -7.854259074200E+00
 136    14 SI    1.694228459000E+00 -2.910476080100E+00 -8.211609872700E+00
 137    14 SI   -3.989950834600E+00  4.045374700200E+00 -8.847679461800E+00
 138    14 SI   -1.556010806200E+00  5.133265376500E+00 -7.280400095500E+00
 139    14 SI    3.202667333100E+00 -4.143709560000E-02 -7.804846559400E+00
 140    14 SI   -4.801296694100E+00 -2.404843363700E+00 -8.675604404900E+00
 141    14 SI   -9.248399814000E-01 -2.591738018200E+00 -9.895195111100E+00
 142    14 SI    3.009908335500E+00  1.351243657500E+00 -2.745233884000E+00
 143    14 SI   -1.502173989900E+00  4.683737569500E+00 -1.143564933000E+00
 144    14 SI    4.135517261600E+00 -6.479188561000E-01 -5.002148378600E+00
 145    14 SI   -2.275637893900E+00  5.805887919000E-01 -6.141793365100E+00
 146    14 SI    1.776972621600E+00 -4.256649639800E+00 -4.011588492500E+00
 147    14 SI   -2.177643399000E+00 -2.576381672600E+00 -6.217013960100E+00
 148    14 SI   -4.528568292300E+00 -2.853140159300E+00 -4.266851170800E+00
 149    14 SI    3.841100220900E+00 -3.693002903100E+00 -1.993366956400E+00
 150    14 SI   -1.526203831200E+00  1.695603448200E+00 -3.252835172400E+00
 151    14 SI    4.708418160000E-01  2.464349202900E+00 -5.273917210000E-02
 152    14 SI    4.393298820300E+00  3.780018717400E+00 -1.511383048100E+00
 153    14 SI    8.857874247000E-01  3.455000410900E+00 -4.060365340300E+00
 154    14 SI    1.254288346900E+00 -1.518515155700E+00 -5.046411990700E+00
 155    14 SI   -3.809829994400E+00  2.365899587800E+00 -9.385623255000E-01
 156    14 SI   -4.006902874200E+00  3.357500135100E+00 -6.071975939600E+00
 157    14 SI    6.154327420000E-01 -2.665348327000E-01 -2.323320507200E+00
 158    14 SI    1.478350087700E+00  4.522235133200E+00 -7.066349827700E+00
 159    14 SI   -5.085503491000E+00 -1.876572556300E+00 -1.304537006300E+00
 160    14 SI    4.445553157200E+00  4.962311276400E+00 -4.652785795400E+00
 161    14 SI   -2.443760071800E+00  5.178771069100E+00 -4.300287255000E+00

 *******************************************************************************
 LOCAL ATOMIC FUNCTIONS BASIS SET
 *******************************************************************************
   ATOM  X(AU)  Y(AU)  Z(AU)    NO. TYPE  EXPONENT  S COEF   P COEF   D/F/G COEF
 *******************************************************************************
   1 H  -2.372 -1.089  0.310
                                  1 S  
                                         1.873E+01 3.349E-02 0.000E+00 0.000E+00
                                         2.825E+00 2.347E-01 0.000E+00 0.000E+00
                                         6.401E-01 8.138E-01 0.000E+00 0.000E+00
                                  2 S  
                                         1.613E-01 1.000E+00 0.000E+00 0.000E+00
                             3-   5 P  
                                         1.100E+00 0.000E+00 1.000E+00 0.000E+00
   2 H   9.950  9.242  1.238
   3 H  -4.920 -3.250  2.682
   4 H   3.062  4.976-17.156
   5 H   9.647 -6.423-18.106
   6 H  -1.020 -7.602-18.687
   7 H  -6.869 -5.541-11.081
   8 H  -2.264 -4.949 -9.712
   9 H   3.799  3.803 -0.896
  10 H   9.047 -7.305 -5.428
  11 H  -0.041  1.973 -0.997
  12 H   0.768  5.335  2.595
  13 H  -8.290  2.419 -0.593
  14 O   5.285  6.958-14.262
                                 66 S  
                                         8.020E+03 1.080E-03 0.000E+00 0.000E+00
                                         1.338E+03 8.040E-03 0.000E+00 0.000E+00
                                         2.554E+02 5.324E-02 0.000E+00 0.000E+00
                                         6.922E+01 1.681E-01 0.000E+00 0.000E+00
                                         2.390E+01 3.581E-01 0.000E+00 0.000E+00
                                         9.264E+00 3.855E-01 0.000E+00 0.000E+00
                                         3.851E+00 1.468E-01 0.000E+00 0.000E+00
                                         1.212E+00 7.280E-02 0.000E+00 0.000E+00
                            67-  70 SP 
                                         4.943E+01-8.830E-03 9.580E-03 0.000E+00
                                         1.047E+01-9.150E-02 6.960E-02 0.000E+00
                                         3.235E+00-4.020E-02 2.065E-01 0.000E+00
                                         1.217E+00 3.790E-01 3.470E-01 0.000E+00
                            71-  74 SP 
                                         4.763E-01 1.000E+00 1.000E+00 0.000E+00
                            75-  78 SP 
                                         1.900E-01 1.000E+00 1.000E+00 0.000E+00
  15 O   3.202 -8.005-13.620
  16 O -10.009  6.154-15.023
  17 O  -3.934  8.958-17.177
  18 O   3.212  1.112-14.697
  19 O  -9.270 -9.786-18.287
  20 O  -3.230 -6.848-14.018
  21 O   7.232  6.874-18.752
  22 O  -6.376  2.137 19.457
  23 O  -2.028  1.383-13.686
  24 O   0.063  0.905-18.149
  25 O  -9.170 -5.855-13.802
  26 O  -0.152  8.305-14.307
  27 O   5.356 -3.237-15.152
  28 O   3.486 -6.843-18.278
  29 O   0.531 -3.608-16.144
  30 O  -6.656 -4.855-18.214
  31 O   9.402 -2.546-17.701
  32 O   7.436  2.376-16.268
  33 O   5.376 -3.095 -9.309
  34 O   3.556  4.616 -6.162
  35 O  -0.826  6.364 -2.088
  36 O   7.293  1.060 -7.400
  37 O  -6.689  3.242-11.901
  38 O   4.455 -6.739 -4.939
  39 O  -3.607  1.359 -8.554
  40 O   7.923  7.989 -5.813
  41 O   5.447 -9.467 -9.380
  42 O   1.002 -2.016-12.037
  43 O   0.301 -3.219 -2.977
  44 O  -2.770  9.761-10.440
  45 O   9.494 -7.641 -8.195
  46 O  -5.040 -2.017-12.107
  47 O  -9.444 -0.605 -1.808
  48 O  -8.225 -5.551 -0.310
  49 O -10.038 -2.844 -9.183
  50 O  -8.502 -4.310 -5.008
  51 O  -1.016  1.698 -4.068
  52 O  -9.182  6.914 -2.127
  53 O  -5.577  3.734 -4.328
  54 O   1.274 -1.005 -7.361
  55 O   3.948  0.498 -3.499
  56 O   8.064 -9.183 -1.743
  57 O   1.551  9.338 -6.447
  58 O   2.334  6.709-10.571
  59 O  -1.196  5.398 -7.511
  60 O   7.891  0.092-12.276
  61 O  10.047  7.638-10.710
  62 O  -6.194  7.242 -8.843
  63 O  -6.058 -7.295 -7.649
  64 O  -3.391  9.281 -5.307
  65 O   1.799 -5.949 -9.291
  66 O  -6.079  8.103-13.797
  67 O  -0.725 -8.238 -2.002
  68 O   7.735 -4.020 -2.590
  69 O   7.989  3.930 -3.763
  70 SI -0.374  0.378  1.661
                                794 S  
                                         8.765E+04 2.370E-04 0.000E+00 0.000E+00
                                         1.285E+04 1.920E-03 0.000E+00 0.000E+00
                                         2.786E+03 1.090E-02 0.000E+00 0.000E+00
                                         7.280E+02 4.960E-02 0.000E+00 0.000E+00
                                         2.195E+02 1.668E-01 0.000E+00 0.000E+00
                                         7.590E+01 3.630E-01 0.000E+00 0.000E+00
                                         2.946E+01 4.051E-01 0.000E+00 0.000E+00
                                         1.199E+01 1.504E-01 0.000E+00 0.000E+00
                           795- 798 SP 
                                         1.660E+02-8.840E-03 9.090E-03 0.000E+00
                                         3.937E+01-8.590E-02 6.010E-02 0.000E+00
                                         1.271E+01-7.120E-02 1.952E-01 0.000E+00
                                         4.718E+00 4.147E-01 3.384E-01 0.000E+00
                                         1.848E+00 6.168E-01 3.006E-01 0.000E+00
                                         7.365E-01 1.154E-01 6.480E-02 0.000E+00
                           799- 802 SP 
                                         4.175E+00-1.990E-02-8.700E-03 0.000E+00
                                         1.447E+00-1.864E-01-4.380E-03 0.000E+00
                                         5.023E-01 9.670E-02 2.207E-01 0.000E+00
                           803- 806 SP 
                                         3.220E-01 1.000E+00 1.000E+00 0.000E+00
                           807- 810 SP 
                                         1.300E-01 1.000E+00 1.000E+00 0.000E+00
                           811- 815 D  
                                         6.000E-01 0.000E+00 0.000E+00 1.000E+00
  71 SI  5.231  6.035  0.684
  72 SI  2.836  8.661  3.455
  73 SI  8.138  3.781  3.512
  74 SI  0.631  6.222  6.441
  75 SI  5.774  1.412  6.450
  76 SI  3.139  3.770  9.171
  77 SI  8.100  8.567  9.003
  78 SI  1.464 -7.521  0.884
  79 SI  6.952 -2.627  1.777
  80 SI  3.281 -1.089  3.769
  81 SI  8.174 -6.182  4.076
  82 SI  0.643 -3.603  6.360
  83 SI  5.448 -8.784  6.314
  84 SI  3.179 -6.100  9.007
  85 SI  8.300 -1.125  9.052
  86 SI -9.921  0.630  1.183
  87 SI -4.716  6.356  1.289
  88 SI -6.993  8.908  3.926
  89 SI -2.089  3.770  3.987
  90 SI -9.775  6.294  6.230
  91 SI -4.681  1.236  6.590
  92 SI -7.178  3.948  9.024
  93 SI -1.830  8.822  8.995
  94 SI -9.315 -7.886  1.483
  95 SI -2.260 -4.977 -2.255
  96 SI -6.888 -1.428  3.870
  97 SI -1.992 -5.498  3.330
  98 SI -9.540 -3.683  6.536
  99 SI -4.180 -8.211  6.202
 100 SI -6.863 -6.083  8.988
 101 SI -1.856 -1.108  9.141
 102 SI  0.548  1.432 11.914
 103 SI  5.682  6.144 11.918
 104 SI  0.782 -8.567 11.760
 105 SI  5.661 -3.547 11.667
 106 SI -9.694  1.451 11.643
 107 SI -4.455  6.357 11.589
 108 SI -9.615 -8.564 11.280
 109 SI -4.399 -3.668 11.748
 110 SI  3.185  8.645 14.664
 111 SI  8.258  3.656 14.590
 112 SI  0.507  6.212 17.462
 113 SI  5.699  1.332 17.526
 114 SI  2.956  3.769-19.644
 115 SI  8.989  8.893 19.626
 116 SI  3.293 -0.973 14.484
 117 SI  8.407 -6.154 13.950
 118 SI  0.702 -3.535 17.032
 119 SI  6.155 -8.526 16.884
 120 SI  4.229 -5.324 19.060
 121 SI  7.730 -2.306 19.475
 122 SI -7.038  8.950 14.012
 123 SI -2.095  3.968 14.559
 124 SI -9.479  6.477 16.598
 125 SI -4.522  1.072 17.060
 126 SI -6.568  5.272 19.652
 127 SI -3.040  8.040 19.776
 128 SI -7.060 -1.029 14.130
 129 SI -1.757 -6.125 14.381
 130 SI -9.694 -3.570 16.557
 131 SI -4.443 -8.588 16.882
 132 SI -6.050 -4.883 18.664
 133 SI -1.717 -0.833 19.817
 134 SI  7.491  5.512-15.958
 135 SI  0.433 -0.285-14.842
 136 SI  3.202 -5.500-15.518
 137 SI -7.540  7.645-16.720
 138 SI -2.940  9.700-13.758
 139 SI  6.052 -0.078-14.749
 140 SI -9.073 -4.544-16.395
 141 SI -1.748 -4.898-18.699
 142 SI  5.688  2.553 -5.188
 143 SI -2.839  8.851 -2.161
 144 SI  7.815 -1.224 -9.453
 145 SI -4.300  1.097-11.606
 146 SI  3.358 -8.044 -7.581
 147 SI -4.115 -4.869-11.748
 148 SI -8.558 -5.392 -8.063
 149 SI  7.259 -6.979 -3.767
 150 SI -2.884  3.204 -6.147
 151 SI  0.890  4.657 -0.100
 152 SI  8.302  7.143 -2.856
 153 SI  1.674  6.529 -7.673
 154 SI  2.370 -2.870 -9.536
 155 SI -7.200  4.471 -1.774
 156 SI -7.572  6.345-11.474
 157 SI  1.163 -0.504 -4.390
 158 SI  2.794  8.546-13.353
 159 SI -9.610 -3.546 -2.465
 160 SI  8.401  9.377 -8.792
 161 SI -4.618  9.786 -8.126
 INFORMATION **** TOLINTEG **** COULOMB AND EXCHANGE SERIES TOLERANCES MODIFIED
 INFORMATION **** READM2 **** FULL DIRECT SCF (MONO AND BIEL INT) SELECTED
 INFORMATION **** SMEAR **** FERMI SMEARING ACTIVE
 FERMI SMEARING - TEMPERATURE SMEARING OF FERMI SURFACE  0.1000E-12
 INFORMATION **** MAXCYCLE **** MAX NUMBER OF SCF CYCLES SET TO         150

 MODIFIED BROYDEN MIXING OF THE FOCK MATRIX
 WO PARAMETER(D.D. Johnson, PRB38, 12807,(1988)             1.0000E-04
 % OF FOCK/KS MATRICES MIXING WHEN BROYDEN METHOD IS ON             90
 NUMBER OF SCF ITERATIONS AFTER WHICH BROYDEN METHOD IS ACTIVE      80
 INFORMATION **** TOLDEE **** SCF TOL ON TOTAL ENERGY SET TO           7
 *******************************************************************************
 N. OF ATOMS PER CELL      161  COULOMB OVERLAP TOL         (T1) 10** -8
 NUMBER OF SHELLS          815  COULOMB PENETRATION TOL     (T2) 10** -8
 NUMBER OF AO             2817  EXCHANGE OVERLAP TOL        (T3) 10** -8
 N. OF ELECTRONS PER CELL 1749  EXCHANGE PSEUDO OVP (F(G))  (T4) 10** -8
 CORE ELECTRONS PER CELL  1032  EXCHANGE PSEUDO OVP (P(G))  (T5) 10**-16
 N. OF SYMMETRY OPERATORS    1  POLE ORDER IN MONO ZONE                4
 *******************************************************************************
 TYPE OF CALCULATION :  UNRESTRICTED OPEN SHELL
 KOHN-SHAM HAMILTONIAN

 (EXCHANGE)[CORRELATION] FUNCTIONAL:(BECKE)[LEE-YANG-PARR]

 NON-LOCAL WEIGHTING FACTOR (EXCHANGE) =           0.9000
 NON-LOCAL WEIGHTING FACTOR [CORRELATION] =        0.8100

 HYBRID EXCHANGE - PERCENTAGE OF FOCK EXCHANGE     5.0000

 SPIN POLARIZED DFT SELECTED

 CAPPA:IS1  2;IS2  2;IS3  2; K PTS MONK NET    8; SYMMOPS: K SPACE  2;G SPACE  1

 *******************************************************************************
 MAX NUMBER OF SCF CYCLES     150  CONVERGENCE ON DELTAP        10**-17
 WEIGHT OF F(I) IN F(I+1)      92% CONVERGENCE ON ENERGY        10**- 7
 SHRINK. FACT.(MONKH.)    2  2  2  NUMBER OF K POINTS IN THE IBZ      8
 SHRINKING FACTOR(GILAT NET)    2  NUMBER OF K POINTS(GILAT NET)      8
 *******************************************************************************
 *** K POINTS COORDINATES (OBLIQUE COORDINATES IN UNITS OF IS =  2)
   1-R(  0  0  0)   2-R(  1  0  0)   3-R(  0  1  0)   4-R(  1  1  0)
   5-R(  0  0  1)   6-R(  1  0  1)   7-R(  0  1  1)   8-R(  1  1  1)

 DIRECT LATTICE VECTORS COMPON. (A.U.)     RECIP. LATTICE VECTORS COMPON. (A.U.) 
        X            Y            Z              X            Y            Z
   20.4825526    0.0000000    0.0000000      0.3067579    0.0000000    0.0000000
    0.0000000   19.7141899    0.0000000      0.0000000    0.3187138    0.0000000
    0.0000000    0.0000000   40.0412181      0.0000000    0.0000000    0.1569179

 DISK SPACE FOR EIGENVECTORS (FTN 10)   63483912 REALS

 SYMMETRY ADAPTION OF THE BLOCH FUNCTIONS DISABLED
 TTTTTTTTTTTTTTTTTTTTTTTTTTTTTT gordsh1     TELAPSE        3.93 TCPU        0.60

 DIMENSIONS  P(G)= 6816105 F(G)= 1214991 P(G),F(G) (IRR) 3416606
 MAX G-VECTOR INDEX FOR 1- AND 2-ELECTRON INTEGRALS  55

 TTTTTTTTTTTTTTTTTTTTTTTTTTTTTT INPUT       TELAPSE        4.29 TCPU        0.95

 NEIGHBORS OF THE NON-EQUIVALENT ATOMS

 N = NUMBER OF NEIGHBORS AT DISTANCE R
    ATOM  N     R/ANG      R/AU   NEIGHBORS (ATOM LABELS AND CELL INDICES)
   1 H    1     1.4937     2.8227  70 SI   0 0 0
   1 H    1     2.1510     4.0647  11 H    0 0 0
   1 H    1     2.1682     4.0972   3 H    0 0 0
   1 H    1     2.4656     4.6592  95 SI   0 0 0
   1 H    1     2.5096     4.7424  43 O    0 0 0
   1 H    1     2.8349     5.3571  97 SI   0 0 0

   2 H    1     1.5183     2.8691  94 SI   1 1 0
   2 H    1     1.9875     3.7558  56 O    0 1 0
   2 H    1     2.2799     4.3083  52 O    1 0 0
   2 H    1     2.3584     4.4568  88 SI   1 0 0
   2 H    1     2.5859     4.8867 152 SI   0 0 0
   2 H    1     2.8800     5.4425  81 SI   0 1 0

   3 H    1     1.5521     2.9330  96 SI   0 0 0
   3 H    1     1.9832     3.7477  97 SI   0 0 0
   3 H    1     2.1682     4.0972   1 H    0 0 0
   3 H    1     2.6546     5.0165  48 O    0 0 0
   3 H    1     3.1050     5.8675  95 SI   0 0 0
   3 H    1     3.1250     5.9054  70 SI   0 0 0

   4 H    1     1.4643     2.7671 114 SI   0 0 0
   4 H    1     2.1978     4.1532  14 O    0 0 0
   4 H    1     2.4251     4.5828  18 O    0 0 0
   4 H    1     2.4449     4.6201 134 SI   0 0 0
   4 H    1     2.5676     4.8520  21 O    0 0 0
   4 H    1     2.7266     5.1526  24 O    0 0 0

   5 H    1     1.6366     3.0926 140 SI   1 0 0
   5 H    1     1.9650     3.7134  19 O    1 0 0
   5 H    1     2.0673     3.9066  31 O    0 0 0
   5 H    1     2.3628     4.4650  30 O    1 0 0
   5 H    1     2.4604     4.6495  25 O    1 0 0
   5 H    1     2.6514     5.0104 115 SI   0-1-1

   6 H    1     1.4818     2.8001 141 SI   0 0 0
   6 H    1     2.4092     4.5528  17 O    0-1 0
   6 H    1     2.4279     4.5880  28 O    0 0 0
   6 H    1     2.5464     4.8121 127 SI   0-1-1
   6 H    1     2.6364     4.9822  29 O    0 0 0
   6 H    1     2.7623     5.2200  20 O    0 0 0

   7 H    1     1.5410     2.9122 147 SI   0 0 0
   7 H    1     1.8315     3.4611 148 SI   0 0 0
   7 H    1     1.8935     3.5781  25 O    0 0 0
   7 H    1     2.0840     3.9383  63 O    0 0 0
   7 H    1     2.1699     4.1005  46 O    0 0 0
   7 H    1     2.4203     4.5738  49 O    0 0 0

   8 H    1     1.4570     2.7533 147 SI   0 0 0
   8 H    1     2.2256     4.2058  65 O    0 0 0
   8 H    1     2.4842     4.6945  46 O    0 0 0
   8 H    1     2.5426     4.8049  20 O    0 0 0
   8 H    1     2.5613     4.8401   7 H    0 0 0
   8 H    1     2.6007     4.9145  63 O    0 0 0

   9 H    1     1.6337     3.0873  71 SI   0 0 0
   9 H    1     1.6589     3.1349 151 SI   0 0 0
   9 H    1     2.2274     4.2091  55 O    0 0 0
   9 H    1     2.2514     4.2546  11 H    0 0 0
   9 H    1     2.5678     4.8524 142 SI   0 0 0
   9 H    1     2.5772     4.8702  12 H    0 0 0

  10 H    1     1.3030     2.4622 149 SI   0 0 0
  10 H    1     1.4942     2.8237  45 O    0 0 0
  10 H    1     2.2297     4.2134  50 O    1 0 0
  10 H    1     2.2495     4.2510  56 O    0 0 0
  10 H    1     2.2999     4.3461 148 SI   1 0 0
  10 H    1     2.3997     4.5348  68 O    0 0 0

  11 H    1     1.5765     2.9792 151 SI   0 0 0
  11 H    1     1.6499     3.1179  70 SI   0 0 0
  11 H    1     1.7112     3.2337  51 O    0 0 0
  11 H    1     2.1510     4.0647   1 H    0 0 0
  11 H    1     2.2514     4.2546   9 H    0 0 0
  11 H    1     2.3124     4.3698 157 SI   0 0 0

  12 H    1     1.4716     2.7810 151 SI   0 0 0
  12 H    1     1.8750     3.5432  89 SI   0 0 0
  12 H    1     2.0900     3.9495  74 SI   0 0 0
  12 H    1     2.1221     4.0102  72 SI   0 0 0
  12 H    1     2.5772     4.8702   9 H    0 0 0
  12 H    1     2.5956     4.9050  71 SI   0 0 0

  13 H    1     1.3792     2.6063 155 SI   0 0 0
  13 H    1     1.5889     3.0027  86 SI   0 0 0
  13 H    1     1.8293     3.4569  47 O    0 0 0
  13 H    1     2.5398     4.7996  53 O    0 0 0
  13 H    1     2.5575     4.8329  52 O    0 0 0
  13 H    1     2.8985     5.4773  69 O   -1 0 0

  14 O    1     1.6353     3.0903 158 SI   0 0 0
  14 O    1     1.6597     3.1364 134 SI   0 0 0
  14 O    1     2.1978     4.1532   4 H    0 0 0
  14 O    1     2.5041     4.7321  58 O    0 0 0
  14 O    1     2.5901     4.8946  21 O    0 0 0
  14 O    1     2.7661     5.2271  15 O    0 1 0

  15 O    1     1.6631     3.1427 136 SI   0 0 0
  15 O    1     1.6938     3.2009 158 SI   0-1 0
  15 O    1     2.5450     4.8094  28 O    0 0 0
  15 O    1     2.5549     4.8281  26 O    0-1 0
  15 O    1     2.6421     4.9928  65 O    0 0 0
  15 O    1     2.6538     5.0149  41 O    0 0 0

  16 O    1     1.6886     3.1910 134 SI  -1 0 0
  16 O    1     1.7706     3.3460 137 SI   0 0 0
  16 O    1     2.2801     4.3087 156 SI   0 0 0
  16 O    1     2.4098     4.5539  66 O    0 0 0
  16 O    1     2.4241     4.5808  61 O   -1 0 0
  16 O    1     2.6424     4.9933  21 O   -1 0 0

  17 O    1     1.7693     3.3436 127 SI   0 0-1
  17 O    1     1.9247     3.6371 138 SI   0 0 0
  17 O    1     2.0450     3.8644 137 SI   0 0 0
  17 O    1     2.1661     4.0933  66 O    0 0 0
  17 O    1     2.4092     4.5528   6 H    0 1 0
  17 O    1     2.5362     4.7926  26 O    0 0 0

  18 O    1     1.6299     3.0800 139 SI   0 0 0
  18 O    1     1.6476     3.1135 135 SI   0 0 0
  18 O    1     2.4251     4.5828   4 H    0 0 0
  18 O    1     2.4674     4.6627  42 O    0 0 0
  18 O    1     2.4749     4.6770  24 O    0 0 0
  18 O    1     2.4768     4.6805  32 O    0 0 0

  19 O    1     1.7187     3.2478 115 SI  -1-1-1
  19 O    1     1.7280     3.2654 137 SI   0-1 0
  19 O    1     1.9650     3.7134   5 H   -1 0 0
  19 O    1     2.6664     5.0387  21 O   -1-1 0
  19 O    1     2.6692     5.0440  16 O    0-1 0
  19 O    1     2.9293     5.5356  17 O    0-1 0

  20 O    1     1.6611     3.1390 147 SI   0 0 0
  20 O    1     1.6879     3.1897 138 SI   0-1 0
  20 O    1     2.5191     4.7603  44 O    0-1 0
  20 O    1     2.5426     4.8049   8 H    0 0 0
  20 O    1     2.5696     4.8559   7 H    0 0 0
  20 O    1     2.6853     5.0745  17 O    0-1 0

  21 O    1     1.6504     3.1188 134 SI   0 0 0
  21 O    1     1.6675     3.1512 115 SI   0 0-1
  21 O    1     2.5676     4.8520   4 H    0 0 0
  21 O    1     2.5901     4.8946  14 O    0 0 0
  21 O    1     2.6424     4.9933  16 O    1 0 0
  21 O    1     2.6664     5.0387  19 O    1 1 0

  22 O    1     1.6653     3.1469 126 SI   0 0 0
  22 O    1     1.7001     3.2126 125 SI   0 0 0
  22 O    1     2.9300     5.5370 133 SI   0 0 0
  22 O    1     3.2032     6.0532 124 SI   0 0 0
  22 O    1     3.2992     6.2345 128 SI   0 0 0
  22 O    1     3.5762     6.7581 123 SI   0 0 0

  23 O    1     1.6372     3.0939 145 SI   0 0 0
  23 O    1     1.6880     3.1898 135 SI   0 0 0
  23 O    1     2.5450     4.8094  46 O    0 0 0
  23 O    1     2.5626     4.8425  42 O    0 0 0
  23 O    1     2.6203     4.9516  24 O    0 0 0
  23 O    1     2.8187     5.3267  37 O    0 0 0

  24 O    1     1.7146     3.2401 133 SI   0 0-1
  24 O    1     1.8702     3.5341 135 SI   0 0 0
  24 O    1     2.2950     4.3370 114 SI   0 0 0
  24 O    1     2.4749     4.6770  18 O    0 0 0
  24 O    1     2.6203     4.9516  23 O    0 0 0
  24 O    1     2.6252     4.9609  29 O    0 0 0

  25 O    1     1.5378     2.9060 140 SI   0 0 0
  25 O    1     1.8935     3.5781   7 H    0 0 0
  25 O    1     2.4604     4.6495   5 H   -1 0 0
  25 O    1     2.7386     5.1752  30 O    0 0 0
  25 O    1     2.8886     5.4586  31 O   -1 0 0
  25 O    1     2.9341     5.5447 147 SI   0 0 0

  26 O    1     1.6433     3.1054 158 SI   0 0 0
  26 O    1     1.6755     3.1663 138 SI   0 0 0
  26 O    1     2.5201     4.7623  58 O    0 0 0
  26 O    1     2.5362     4.7926  17 O    0 0 0
  26 O    1     2.5549     4.8281  15 O    0 1 0
  26 O    1     2.5885     4.8915  44 O    0 0 0

  27 O    1     1.6647     3.1459 136 SI   0 0 0
  27 O    1     1.7248     3.2593 139 SI   0 0 0
  27 O    1     2.5567     4.8314  31 O    0 0 0
  27 O    1     2.5769     4.8696  18 O    0 0 0
  27 O    1     2.6140     4.9398  29 O    0 0 0
  27 O    1     2.6871     5.0779  60 O    0 0 0

  28 O    1     1.6312     3.0825 136 SI   0 0 0
  28 O    1     1.6871     3.1881 120 SI   0 0-1
  28 O    1     2.4279     4.5880   6 H    0 0 0
  28 O    1     2.5450     4.8094  15 O    0 0 0
  28 O    1     2.5791     4.8738  29 O    0 0 0
  28 O    1     2.7120     5.1250  27 O    0 0 0

  29 O    1     1.7634     3.3324 136 SI   0 0 0
  29 O    1     1.8889     3.5696 135 SI   0 0 0
  29 O    1     1.9361     3.6587 141 SI   0 0 0
  29 O    1     2.3438     4.4292  42 O    0 0 0
  29 O    1     2.5791     4.8738  28 O    0 0 0
  29 O    1     2.6140     4.9398  27 O    0 0 0

  30 O    1     1.6095     3.0415 140 SI   0 0 0
  30 O    1     1.7045     3.2210 132 SI   0 0-1
  30 O    1     2.3628     4.4650   5 H   -1 0 0
  30 O    1     2.6100     4.9323 141 SI   0 0 0
  30 O    1     2.6552     5.0175  31 O   -1 0 0
  30 O    1     2.7386     5.1752  25 O    0 0 0

  31 O    1     1.6508     3.1195 140 SI   1 0 0
  31 O    1     1.7600     3.3260 121 SI   0 0-1
  31 O    1     2.0673     3.9066   5 H    0 0 0
  31 O    1     2.5567     4.8314  27 O    0 0 0
  31 O    1     2.6552     5.0175  30 O    1 0 0
  31 O    1     2.6995     5.1012 139 SI   0 0 0

  32 O    1     1.6679     3.1519 134 SI   0 0 0
  32 O    1     1.6939     3.2009 139 SI   0 0 0
  32 O    1     2.4459     4.6221  60 O    0 0 0
  32 O    1     2.4768     4.6805  18 O    0 0 0
  32 O    1     2.6488     5.0055  16 O    1 0 0
  32 O    1     2.7213     5.1425  21 O    0 0 0

  33 O    1     1.5997     3.0229 154 SI   0 0 0
  33 O    1     1.6283     3.0771 144 SI   0 0 0
  33 O    1     2.4215     4.5760  65 O    0 0 0
  33 O    1     2.6237     4.9581  36 O    0 0 0
  33 O    1     2.6454     4.9991  54 O    0 0 0
  33 O    1     2.6608     5.0282  60 O    0 0 0

  34 O    1     1.6296     3.0795 153 SI   0 0 0
  34 O    1     1.6523     3.1225 142 SI   0 0 0
  34 O    1     2.6036     4.9201  55 O    0 0 0
  34 O    1     2.6463     5.0007  59 O    0 0 0
  34 O    1     2.6625     5.0313  58 O    0 0 0
  34 O    1     2.6919     5.0870  69 O    0 0 0

  35 O    1     1.6577     3.1326 151 SI   0 0 0
  35 O    1     1.6935     3.2002 143 SI   0 0 0
  35 O    1     2.4300     4.5920  11 H    0 0 0
  35 O    1     2.6695     5.0447  64 O    0 0 0
  35 O    1     2.6739     5.0529  12 H    0 0 0
  35 O    1     2.6838     5.0717  51 O    0 0 0

  36 O    1     1.6481     3.1145 142 SI   0 0 0
  36 O    1     1.6485     3.1151 144 SI   0 0 0
  36 O    1     2.4792     4.6850  69 O    0 0 0
  36 O    1     2.6237     4.9581  33 O    0 0 0
  36 O    1     2.6495     5.0069  60 O    0 0 0
  36 O    1     2.7355     5.1693  55 O    0 0 0

  37 O    1     1.7060     3.2238 145 SI   0 0 0
  37 O    1     1.7219     3.2539 156 SI   0 0 0
  37 O    1     2.6054     4.9235  39 O    0 0 0
  37 O    1     2.6772     5.0591  62 O    0 0 0
  37 O    1     2.7799     5.2532  66 O    0 0 0
  37 O    1     2.8187     5.3267  23 O    0 0 0

  38 O    1     1.6129     3.0479 149 SI   0 0 0
[...]
   8.5554646   8.6840285   8.5264041   8.6673834   8.6633809   8.5419001
   8.6388040   8.6793999   8.6802549   8.6927350   8.5806959   8.8807357
   8.7728118   8.6090006   8.6688621  13.7646229  13.9159675  14.1047484
  13.9874392  13.9716899  14.0429667  13.9735085  13.9961793  13.6675482
  13.7519582  14.0065546  14.0542167  14.0308242  14.0066881  13.9854782
  13.9793107  13.6746257  14.0450635  14.0320819  14.0442695  14.0025043
  14.0438907  13.9921955  14.0030755  13.3993156  13.3027935  13.8102061
  14.1391313  14.0463562  13.9792248  14.0000252  13.9833323  13.9872667
  14.0096374  14.0071979  13.9835129  14.0111703  13.9876609  14.0064254
  13.9893089  14.0023027  13.9916883  14.0568285  14.0131434  13.5036646
  13.3477437  14.0307323  14.0340214  14.1935399  14.0148243  13.6648749
  13.5846594  13.9852976  14.0501885  14.0643103  13.6981703  13.7019374
  13.6514884  14.0501414  13.9662009  14.0192557  14.0642012  13.6808822
  13.6741962  12.6886693  12.6354074  12.6744694  12.9099236  12.5168763
  12.7954098  12.9416061  13.4265469  12.7743381  12.9897621  12.7553873
  12.6321411  12.8738472  13.0241370  12.5669611  13.1271888  12.5512341
  13.3483015  12.8890637  12.7567581  12.8156962  12.9357715  12.5975799
  12.8547988  12.5398230  12.9533206  12.6984622  12.7044833
 SUMMED SPIN DENSITY           0.00000000
 TOTAL ATOMIC SPINS  :
   0.0000000   0.0000000   0.0000000   0.0000000   0.0000000   0.0000000
   0.0000000   0.0000000   0.0000000   0.0000000   0.0000000   0.0000000
   0.0000000   0.0000000   0.0000000   0.0000000   0.0000000   0.0000000
   0.0000000   0.0000000   0.0000000   0.0000000   0.0000000   0.0000000
   0.0000000   0.0000000   0.0000000   0.0000000   0.0000000   0.0000000
   0.0000000   0.0000000   0.0000000   0.0000000   0.0000000   0.0000000
   0.0000000   0.0000000   0.0000000   0.0000000   0.0000000   0.0000000
   0.0000000   0.0000000   0.0000000   0.0000000   0.0000000   0.0000000
   0.0000000   0.0000000   0.0000000   0.0000000   0.0000000   0.0000000
   0.0000000   0.0000000   0.0000000   0.0000000   0.0000000   0.0000000
   0.0000000   0.0000000   0.0000000   0.0000000   0.0000000   0.0000000
   0.0000000   0.0000000   0.0000000   0.0000001   0.0000000   0.0000000
   0.0000000   0.0000000   0.0000000   0.0000000   0.0000000   0.0000000
  -0.0000002   0.0000000   0.0000000   0.0000000   0.0000000   0.0000000
   0.0000000   0.0000000   0.0000000   0.0000000   0.0000000   0.0000000
   0.0000000   0.0000000   0.0000000   0.0000000   0.0000000   0.0000000
   0.0000000   0.0000000   0.0000000   0.0000000   0.0000000   0.0000000
   0.0000000   0.0000000   0.0000000   0.0000000   0.0000000   0.0000000
   0.0000000   0.0000000   0.0000000   0.0000000   0.0000000   0.0000001
   0.0000000   0.0000000   0.0000000   0.0000000   0.0000000   0.0000000
   0.0000000   0.0000000   0.0000000   0.0000000   0.0000000   0.0000000
   0.0000000   0.0000000   0.0000000   0.0000000   0.0000000   0.0000000
   0.0000000   0.0000000   0.0000000   0.0000000   0.0000000   0.0000000
   0.0000000   0.0000000   0.0000000   0.0000000   0.0000000   0.0000000
   0.0000000   0.0000000   0.0000000   0.0000000   0.0000000   0.0000000
   0.0000001   0.0000000   0.0000000   0.0000000   0.0000000   0.0000000
   0.0000000   0.0000000   0.0000000   0.0000000   0.0000000
 TTTTTTTTTTTTTTTTTTTTTTTTTTTTTT MOQGAD      TELAPSE    14175.25 TCPU    13904.78
 WARNING **** GENBUD **** COUL. BIPO BUFFER TOO SMALL - TO AVOID I/O SET BIPOSIZE =     2214075
 TTTTTTTTTTTTTTTTTTTTTTTTTTTTTT SHELLX      TELAPSE    14270.39 TCPU    13998.12
 TTTTTTTTTTTTTTTTTTTTTTTTTTTTTT MONMO3      TELAPSE    14281.81 TCPU    14009.53
 NUMERICALLY INTEGRATED DENSITY    874.5001285533    874.5001285533
 TTTTTTTTTTTTTTTTTTTTTTTTTTTTTT NUMDFT      TELAPSE    14288.36 TCPU    14016.07
 CYC  58 ETOT(AU) -3.085189951406E+04 DETOT -1.64E-07 tst  5.91E-11 PX  5.44E-05
 TTTTTTTTTTTTTTTTTTTTTTTTTTTTTT FDIK        TELAPSE    14405.82 TCPU    14130.68
 POSSIBLY CONDUCTING STATE - EFERMI(AU) -7.5124883E-02 (RES. CHARGE  0.00E+00;IT.  0)
 TTTTTTTTTTTTTTTTTTTTTTTTTTTTTT PDIG        TELAPSE    14409.00 TCPU    14133.87
 CHARGE NORMALIZATION FACTOR   1.00000000
 TOTAL ATOMIC CHARGES:
   1.0627452   1.1163438   1.0980940   1.0598022   1.2993668   1.0312172
   1.2372221   1.0863941   1.1160492   1.1090821   1.1962985   1.1907584
   1.3445866   8.6250597   8.6513715   8.8196096   8.8327029   8.5603800
   8.5372396   8.6203936   8.6552924   8.5419801   8.5847153   8.7181795
   8.5996254   8.6252798   8.6432084   8.6239926   8.8011832   8.6196385
   8.6928707   8.6131720   8.6420341   8.6938538   8.5879651   8.6186374
   8.6411586   8.5280477   8.6613124   8.7440101   8.6811615   8.7781878
   8.6275618   8.7000501   8.6279234   8.6739362   8.5625955   8.6121020
   8.6133674   8.6003524   8.6860918   8.5662797   8.6621419   8.5935517
   8.5554685   8.6840312   8.5264045   8.6673746   8.6633958   8.5418984
   8.6388103   8.6794045   8.6802454   8.6927471   8.5806953   8.8807473
   8.7728187   8.6090077   8.6688684  13.7646239  13.9159717  14.1047476
  13.9874382  13.9716911  14.0429727  13.9735067  13.9961801  13.6675411
  13.7519500  14.0065506  14.0542199  14.0308268  14.0066917  13.9854736
  13.9793113  13.6746273  14.0450725  14.0320784  14.0442700  14.0025037
  14.0438901  13.9921973  14.0030796  13.3992988  13.3027933  13.8102114
  14.1391376  14.0463616  13.9792171  14.0000259  13.9833325  13.9872665
  14.0096369  14.0071994  13.9835147  14.0111660  13.9876576  14.0064252
  13.9893152  14.0023031  13.9916872  14.0568310  14.0131353  13.5036531
  13.3477334  14.0307409  14.0340262  14.1935511  14.0148175  13.6648737
  13.5846484  13.9852922  14.0501958  14.0643234  13.6981733  13.7019388
  13.6514898  14.0501382  13.9661909  14.0192655  14.0642113  13.6808878
  13.6741766  12.6886611  12.6353970  12.6744547  12.9099102  12.5168731
  12.7954256  12.9415625  13.4265350  12.7743264  12.9897450  12.7553795
  12.6321265  12.8738447  13.0241189  12.5669764  13.1271890  12.5512061
  13.3482913  12.8890419  12.7567306  12.8156941  12.9357511  12.5975803
  12.8547826  12.5398229  12.9533114  12.6984361  12.7044710
 SUMMED SPIN DENSITY           0.00000000
 TOTAL ATOMIC SPINS  :
   0.0000000   0.0000000   0.0000000   0.0000000   0.0000000   0.0000000
   0.0000000   0.0000000   0.0000000   0.0000000   0.0000000   0.0000000
   0.0000000   0.0000000   0.0000000   0.0000000   0.0000000   0.0000000
   0.0000000   0.0000000   0.0000000   0.0000000   0.0000000   0.0000000
   0.0000000   0.0000000   0.0000000   0.0000000   0.0000000   0.0000000
   0.0000000   0.0000000   0.0000000   0.0000000   0.0000000   0.0000000
   0.0000000   0.0000000   0.0000000   0.0000000   0.0000000   0.0000000
   0.0000000   0.0000000   0.0000000   0.0000000   0.0000000   0.0000000
   0.0000000   0.0000000   0.0000000   0.0000000   0.0000000   0.0000000
   0.0000000   0.0000000   0.0000000   0.0000000   0.0000000   0.0000000
   0.0000000   0.0000000   0.0000000   0.0000000   0.0000000   0.0000000
   0.0000000   0.0000000   0.0000000   0.0000001   0.0000000   0.0000000
   0.0000000   0.0000000   0.0000000   0.0000000   0.0000000   0.0000000
  -0.0000002   0.0000000   0.0000000   0.0000000   0.0000000   0.0000000
   0.0000000   0.0000000   0.0000000   0.0000000   0.0000000   0.0000000
   0.0000000   0.0000000   0.0000000   0.0000000   0.0000000   0.0000000
   0.0000000   0.0000000   0.0000000   0.0000000   0.0000000   0.0000000
   0.0000000   0.0000000   0.0000000   0.0000000   0.0000000   0.0000000
   0.0000000   0.0000000   0.0000000   0.0000000   0.0000000   0.0000001
   0.0000000   0.0000000   0.0000000   0.0000000   0.0000000   0.0000000
   0.0000000   0.0000000   0.0000000   0.0000000   0.0000000   0.0000000
   0.0000000   0.0000000   0.0000000   0.0000000   0.0000000   0.0000000
   0.0000000   0.0000000   0.0000000   0.0000000   0.0000000   0.0000000
   0.0000000   0.0000000   0.0000000   0.0000000   0.0000000   0.0000000
   0.0000000   0.0000000   0.0000000   0.0000000   0.0000000   0.0000000
   0.0000001   0.0000000   0.0000000   0.0000000   0.0000000   0.0000000
   0.0000000   0.0000000   0.0000000   0.0000000   0.0000000
 TTTTTTTTTTTTTTTTTTTTTTTTTTTTTT MOQGAD      TELAPSE    14409.11 TCPU    14133.97
 WARNING **** GENBUD **** COUL. BIPO BUFFER TOO SMALL - TO AVOID I/O SET BIPOSIZE =     2214075
 TTTTTTTTTTTTTTTTTTTTTTTTTTTTTT SHELLX      TELAPSE    14504.00 TCPU    14226.82
 TTTTTTTTTTTTTTTTTTTTTTTTTTTTTT MONMO3      TELAPSE    14527.67 TCPU    14250.45
 NUMERICALLY INTEGRATED DENSITY    874.5001285556    874.5001285556
 TTTTTTTTTTTTTTTTTTTTTTTTTTTTTT NUMDFT      TELAPSE    14534.15 TCPU    14256.90
 CYC  59 ETOT(AU) -3.085189951418E+04 DETOT -1.17E-07 tst  5.31E-11 PX  4.90E-05
 TTTTTTTTTTTTTTTTTTTTTTTTTTTTTT FDIK        TELAPSE    14655.25 TCPU    14376.82
 POSSIBLY CONDUCTING STATE - EFERMI(AU) -7.5124883E-02 (RES. CHARGE  0.00E+00;IT.  0)
 TTTTTTTTTTTTTTTTTTTTTTTTTTTTTT PDIG        TELAPSE    14658.44 TCPU    14380.01
 CHARGE NORMALIZATION FACTOR   1.00000000
 TOTAL ATOMIC CHARGES:
   1.0627473   1.1163586   1.0980840   1.0598095   1.2993935   1.0312212
   1.2372189   1.0864008   1.1160535   1.1090833   1.1963031   1.1907546
   1.3445933   8.6250686   8.6513753   8.8196129   8.8327034   8.5603832
   8.5372425   8.6204003   8.6553016   8.5419752   8.5847137   8.7181855
   8.5996352   8.6252790   8.6432146   8.6239945   8.8011890   8.6196405
   8.6928761   8.6131605   8.6420435   8.6938729   8.5879763   8.6186397
   8.6411589   8.5280452   8.6613192   8.7440219   8.6811693   8.7781992
   8.6275625   8.7000619   8.6279373   8.6739470   8.5625949   8.6121054
   8.6133644   8.6003458   8.6861031   8.5662888   8.6621499   8.5935598
   8.5554724   8.6840336   8.5264052   8.6673669   8.6634098   8.5418973
   8.6388165   8.6794092   8.6802367   8.6927586   8.5806950   8.8807580
   8.7728252   8.6090146   8.6688744  13.7646247  13.9159757  14.1047470
  13.9874372  13.9716922  14.0429781  13.9735051  13.9961809  13.6675346
  13.7519423  14.0065470  14.0542228  14.0308291  14.0066950  13.9854693
  13.9793119  13.6746287  14.0450809  14.0320752  14.0442703  14.0025030
  14.0438896  13.9921989  14.0030833  13.3992831  13.3027929  13.8102162
  14.1391436  14.0463666  13.9792101  14.0000265  13.9833327  13.9872662
  14.0096364  14.0072008  13.9835162  14.0111619  13.9876546  14.0064251
  13.9893211  14.0023035  13.9916863  14.0568332  14.0131278  13.5036423
  13.3477238  14.0307488  14.0340305  14.1935612  14.0148111  13.6648729
  13.5846381  13.9852870  14.0502027  14.0643355  13.6981761  13.7019401
  13.6514910  14.0501352  13.9661817  14.0192746  14.0642207  13.6808930
  13.6741586  12.6886529  12.6353870  12.6744404  12.9098978  12.5168699
  12.7954396  12.9415219  13.4265240  12.7743148  12.9897290  12.7553718
  12.6321121  12.8738419  13.0241015  12.5669894  13.1271888  12.5511796
  13.3482815  12.8890216  12.7567047  12.8156913  12.9357317  12.5975799
  12.8547669  12.5398221  12.9533023  12.6984108  12.7044589
 SUMMED SPIN DENSITY           0.00000000
 TOTAL ATOMIC SPINS  :
   0.0000000   0.0000000   0.0000000   0.0000000   0.0000000   0.0000000
   0.0000000   0.0000000   0.0000000   0.0000000   0.0000000   0.0000000
   0.0000000   0.0000000   0.0000000   0.0000000   0.0000000   0.0000000
   0.0000000   0.0000000   0.0000000   0.0000000   0.0000000   0.0000000
   0.0000000   0.0000000   0.0000000   0.0000000   0.0000000   0.0000000
   0.0000000   0.0000000   0.0000000   0.0000000   0.0000000   0.0000000
   0.0000000   0.0000000   0.0000000   0.0000000   0.0000000   0.0000000
   0.0000000   0.0000000   0.0000000   0.0000000   0.0000000   0.0000000
   0.0000000   0.0000000   0.0000000   0.0000000   0.0000000   0.0000000
   0.0000000   0.0000000   0.0000000   0.0000000   0.0000000   0.0000000
   0.0000000   0.0000000   0.0000000   0.0000000   0.0000000   0.0000000
   0.0000000   0.0000000   0.0000000   0.0000001   0.0000000   0.0000000
   0.0000000   0.0000000   0.0000000   0.0000000   0.0000000   0.0000000
  -0.0000002  -0.0000001   0.0000000   0.0000000   0.0000000   0.0000000
   0.0000000   0.0000000   0.0000000   0.0000000   0.0000000   0.0000000
   0.0000000   0.0000000   0.0000000   0.0000000   0.0000000   0.0000000
   0.0000000   0.0000000   0.0000000   0.0000000   0.0000000   0.0000000
   0.0000000   0.0000000   0.0000000   0.0000000   0.0000000   0.0000000
   0.0000000   0.0000000   0.0000000   0.0000000   0.0000000   0.0000001
   0.0000000   0.0000000   0.0000000   0.0000000   0.0000000   0.0000000
   0.0000000   0.0000000   0.0000000   0.0000000   0.0000000   0.0000000
   0.0000000   0.0000000   0.0000000   0.0000000   0.0000000   0.0000000
   0.0000000   0.0000000   0.0000000   0.0000000   0.0000000   0.0000000
   0.0000000   0.0000000   0.0000000   0.0000000   0.0000000   0.0000000
   0.0000000   0.0000000   0.0000000   0.0000000   0.0000000   0.0000000
   0.0000001   0.0000000   0.0000000   0.0000000   0.0000000   0.0000000
   0.0000000   0.0000000   0.0000000   0.0000000   0.0000000
 TTTTTTTTTTTTTTTTTTTTTTTTTTTTTT MOQGAD      TELAPSE    14658.54 TCPU    14380.11
 WARNING **** GENBUD **** COUL. BIPO BUFFER TOO SMALL - TO AVOID I/O SET BIPOSIZE =     2214075
 TTTTTTTTTTTTTTTTTTTTTTTTTTTTTT SHELLX      TELAPSE    14756.16 TCPU    14471.71
 TTTTTTTTTTTTTTTTTTTTTTTTTTTTTT MONMO3      TELAPSE    14768.58 TCPU    14484.12
 NUMERICALLY INTEGRATED DENSITY    874.5001285577    874.5001285577
 TTTTTTTTTTTTTTTTTTTTTTTTTTTTTT NUMDFT      TELAPSE    14774.98 TCPU    14490.51
 CYC  60 ETOT(AU) -3.085189951427E+04 DETOT -8.64E-08 tst  4.75E-11 PX  4.46E-05
 TTTTTTTTTTTTTTTTTTTTTTTTTTTTTT FDIK        TELAPSE    14884.34 TCPU    14597.92
 POSSIBLY CONDUCTING STATE - EFERMI(AU) -7.5124883E-02 (RES. CHARGE  0.00E+00;IT.  0)
 TTTTTTTTTTTTTTTTTTTTTTTTTTTTTT PDIG        TELAPSE    14887.53 TCPU    14601.10
 CHARGE NORMALIZATION FACTOR   1.00000000
 TOTAL ATOMIC CHARGES:
   1.0627494   1.1163724   1.0980751   1.0598163   1.2994180   1.0312252
   1.2372162   1.0864072   1.1160576   1.1090847   1.1963074   1.1907513
   1.3445999   8.6250770   8.6513791   8.8196162   8.8327040   8.5603862
   8.5372456   8.6204067   8.6553102   8.5419710   8.5847126   8.7181913
   8.5996447   8.6252785   8.6432206   8.6239965   8.8011943   8.6196425
   8.6928812   8.6131505   8.6420523   8.6938905   8.5879867   8.6186422
   8.6411596   8.5280432   8.6613257   8.7440330   8.6811766   8.7782098
   8.6275635   8.7000727   8.6279500   8.6739570   8.5625948   8.6121090
   8.6133620   8.6003399   8.6861136   8.5662972   8.6621575   8.5935675
   8.5554762   8.6840362   8.5264063   8.6673601   8.6634230   8.5418965
   8.6388223   8.6794137   8.6802292   8.6927693   8.5806951   8.8807677
   8.7728312   8.6090211   8.6688802  13.7646252  13.9159794  14.1047464
  13.9874363  13.9716931  14.0429831  13.9735037  13.9961816  13.6675287
  13.7519354  14.0065436  14.0542256  14.0308313  14.0066980  13.9854653
  13.9793124  13.6746297  14.0450887  14.0320720  14.0442707  14.0025024
  14.0438890  13.9922004  14.0030868  13.3992683  13.3027923  13.8102203
  14.1391490  14.0463712  13.9792035  14.0000270  13.9833329  13.9872659
  14.0096358  14.0072022  13.9835176  14.0111581  13.9876518  14.0064251
  13.9893266  14.0023039  13.9916856  14.0568351  14.0131208  13.5036325
  13.3477147  14.0307561  14.0340345  14.1935706  14.0148053  13.6648718
  13.5846287  13.9852822  14.0502090  14.0643468  13.6981784  13.7019411
  13.6514920  14.0501324  13.9661731  14.0192829  14.0642292  13.6808977
  13.6741419  12.6886448  12.6353773  12.6744272  12.9098862  12.5168665
  12.7954519  12.9414842  13.4265137  12.7743039  12.9897143  12.7553640
  12.6320984  12.8738387  13.0240849  12.5670006  13.1271878  12.5511547
  13.3482721  12.8890022  12.7566803  12.8156882  12.9357135  12.5975792
  12.8547522  12.5398205  12.9532934  12.6983875  12.7044473
 SUMMED SPIN DENSITY           0.00000000
 TOTAL ATOMIC SPINS  :
   0.0000000   0.0000000   0.0000000   0.0000000   0.0000000   0.0000000
   0.0000000   0.0000000   0.0000000   0.0000000   0.0000000   0.0000000
   0.0000000   0.0000000   0.0000000   0.0000000   0.0000000   0.0000000
   0.0000000   0.0000000   0.0000000   0.0000000   0.0000000   0.0000000
   0.0000000   0.0000000   0.0000000   0.0000000   0.0000000   0.0000000
   0.0000000   0.0000000   0.0000000   0.0000000   0.0000000   0.0000000
   0.0000000   0.0000000   0.0000000   0.0000000   0.0000000   0.0000000
   0.0000000   0.0000000   0.0000000   0.0000000   0.0000000   0.0000000
   0.0000000   0.0000000   0.0000000   0.0000000   0.0000000   0.0000000
   0.0000000   0.0000000   0.0000000   0.0000000   0.0000000   0.0000000
   0.0000000   0.0000000   0.0000000   0.0000000   0.0000000   0.0000000
   0.0000000   0.0000000   0.0000000   0.0000001   0.0000000   0.0000000
   0.0000000   0.0000000   0.0000000   0.0000000   0.0000000   0.0000000
  -0.0000002  -0.0000001   0.0000000   0.0000000   0.0000000   0.0000000
   0.0000000   0.0000000   0.0000000   0.0000000   0.0000000   0.0000000
   0.0000000   0.0000000   0.0000000   0.0000000   0.0000000   0.0000000
   0.0000000   0.0000000   0.0000000   0.0000000   0.0000000   0.0000000
   0.0000000   0.0000000   0.0000000   0.0000000   0.0000000   0.0000000
   0.0000000   0.0000000   0.0000000   0.0000000   0.0000000   0.0000001
   0.0000000   0.0000000   0.0000000   0.0000000   0.0000000   0.0000000
   0.0000000   0.0000000   0.0000000   0.0000000   0.0000000   0.0000000
   0.0000000   0.0000000   0.0000000   0.0000000   0.0000000   0.0000000
   0.0000000   0.0000000   0.0000000   0.0000000   0.0000000   0.0000000
   0.0000000   0.0000000   0.0000000   0.0000000   0.0000000   0.0000000
   0.0000000   0.0000000   0.0000000   0.0000000   0.0000000   0.0000000
   0.0000001   0.0000000   0.0000000   0.0000000   0.0000000   0.0000000
   0.0000000   0.0000000   0.0000000   0.0000000   0.0000000
 TTTTTTTTTTTTTTTTTTTTTTTTTTTTTT MOQGAD      TELAPSE    14887.63 TCPU    14601.20
 WARNING **** GENBUD **** COUL. BIPO BUFFER TOO SMALL - TO AVOID I/O SET BIPOSIZE =     2214075
 TTTTTTTTTTTTTTTTTTTTTTTTTTTTTT SHELLX      TELAPSE    14981.19 TCPU    14694.61
 +++ ENERGIES IN A.U. +++
 ::: EXT EL-POLE                                  -4.4621907695300E+04
 ::: EXT EL-SPHEROPOLE                             3.2064843657244E+02
 ::: BIELET ZONE E-E                               5.3871814500329E+04
 ::: TOTAL E-E                                     9.5705552416018E+03
 ::: TOTAL E-N + N-E                              -6.3630910374433E+04
 ::: TOTAL N-N                                    -5.2445320289440E+03
 ::: KINETIC ENERGY                                3.0745983134630E+04
 ::: PSEUDO TOTAL   ENERGY                        -2.8558904027145E+04
 ::: VIRIAL COEFFICIENT                            1.0368785645190E+00
 TTTTTTTTTTTTTTTTTTTTTTTTTTTTTT MONMO3      TELAPSE    14992.04 TCPU    14705.44
 NUMERICALLY INTEGRATED DENSITY    874.5001285596    874.5001285596
 TTTTTTTTTTTTTTTTTTTTTTTTTTTTTT NUMDFT      TELAPSE    14998.75 TCPU    14712.12
 CYC  61 ETOT(AU) -3.085189951432E+04 DETOT -5.62E-08 tst  4.26E-11 PX  4.46E-05

 == SCF ENDED - CONVERGENCE ON ENERGY      E(AU) -3.0851899514325E+04 CYCLES  61


 ENERGY EXPRESSION=HARTREE+FOCK EXCH*0.05000+(BECKE  EXCH)*0.95000+LYP    CORR

 FINITE TEMPERATURE DFT CALCULATION 
 TEMPERATURE      (T)    1.000000000000E-13 HARTREE 
 ENERGY           (E)   -3.085189951432E+04
 FREE ENERGY      (F)   -3.085189951432E+04
 ELECTRON ENTROPY (S)    0.000000000000E+00
 (E(T)+F(T))/2    (E0)  -3.085189951432E+04


 TOTAL ENERGY(DFT)(AU)( 61) -3.0851899514325E+04 DE-5.6E-08 tester 4.3E-11
 TTTTTTTTTTTTTTTTTTTTTTTTTTTTTT EDFT        TELAPSE    14999.03 TCPU    14712.39
 EIGENVECTORS IN FORTRAN UNIT 10
 TTTTTTTTTTTTTTTTTTTTTTTTTTTTTT END         TELAPSE    15042.92 TCPU    14756.17
 EEEEEEEEEE TERMINATION  DATE 03 11 2014 TIME 16:51:53.8
NODE    0 CPU TIME =     14756.170
    TOTAL CPU TIME =   2823839.295
