--------------------------------------------------------------------------
WARNING: Open MPI will create a shared memory backing file in a
directory that appears to be mounted on a network filesystem.
Creating the shared memory backup file on a network file system, such
as NFS or Lustre is not recommended -- it may cause excessive network
traffic to your file servers and/or cause shared memory traffic in
Open MPI to be much slower than expected.

You may want to check what the typical temporary directory is on your
node.  Possible sources of the location of this temporary directory
include the $TEMPDIR, $TEMP, and $TMP environment variables.

Note, too, that system administrators can set a list of filesystems
where Open MPI is disallowed from creating temporary files by settings
the MCA parameter "orte_no_session_dir".

  Local host: r1i7n4
  Fileame:    /ichec/work/scratch/tmp/238297.service1.cb3.ichec.ie/openmpi-sessions-emehes@r1i7n4_0/11334/1/shared_mem_pool.r1i7n4

You can set the MCA paramter shmem_mmap_enable_nfs_warning to 0 to
disable this message.
--------------------------------------------------------------------------
--------------------------------------------------------------------------
WARNING: It appears that your OpenFabrics subsystem is configured to only
allow registering part of your physical memory.  This can cause MPI jobs to
run with erratic performance, hang, and/or crash.

This may be caused by your OpenFabrics vendor limiting the amount of
physical memory that can be registered.  You should investigate the
relevant Linux kernel module parameters that control how much physical
memory can be registered, and increase them to allow registering all
physical memory on your machine.

See this Open MPI FAQ item for more information on these Linux kernel module
parameters:

    http://www.open-mpi.org/faq/?category=openfabrics#ib-locked-pages

  Local host:              r1i7n4
  Registerable memory:     32768 MiB
  Total memory:            65506 MiB

Your MPI job will continue, but may be behave poorly and/or hang.
--------------------------------------------------------------------------
         192 PROCESSORS WORKING

         
 *******************************************************************************
 *                                                                             *
 *                                CRYSTAL09                                    *
 *                              public : 2.0                                   *
 *                      December 10th, 2012 - parallel executable              *
 *                                                                             *
 *                                                                             *
 *                                                                             *
 *                              MAIN AUTHORS                                   *
 *                                                                             *
 *    R. DOVESI(1,10), V.R. SAUNDERS(2), C. ROETTI(1,10), R. ORLANDO (1,3),    *
 *  C.M. ZICOVICH-WILSON(1,4), F. PASCALE(5), B. CIVALLERI(1,10), K. DOLL(6),  *
 *       N.M. HARRISON(2,7), I. J. BUSH(2), Ph. D'ARCO(8), M. LLUNELL(9)       *
 *                                                                             *
 * (1) THEORETICAL CHEMISTRY GROUP - UNIVERSITA' DI TORINO - TORINO (ITALY)    *
 *      http://www.crystal.unito.it                                            *
 * (2) COMPUTATIONAL SCIENCE & ENGINEERING DEPARTMENT - STFC DARESBURY LABORATO*Y (UK)
 *     http://www.cse.stfc.ac.uk/cmg/CRYSTAL/                                  *
 * (3) UNIVERSITA' DEL PIEMONTE ORIENTALE - ALESSANDRIA (ITALY)                *
 * (4) UNIVERSIDAD AUTONOMA DEL ESTADO DE MORELOS - CUERNAVACA (MEXICO)        *
 * (5) UNIVERSITE' HENRI POINCARE' - NANCY (FRANCE)                            *
 * (6) MPI FUER FESTKOERPERFORSCHUNG - STUTTGART (GERMANY)                     *
 * (7) IMPERIAL COLLEGE - LONDON (UK)                                          *
 * (8) UNIVERSITE' PIERRE ET MARIE CURIE - PARIS (FRANCE)                      *
 * (9) UNIVERSIDAD DE BARCELONA - BARCELONA (SPAIN)                            *
 *(10) NIS - NANOSTRUCTURED INTERFACES AND SURFACES - TORINO (ITALY)           *
 *     http://www.crystal.unito.it                                             *
 *******************************************************************************
 EEEEEEEEEE STARTING  DATE 22 07 2014 TIME 07:47:11.3
 Created with astools                                                            

 CRYSTAL CALCULATION
 (INPUT ACCORDING TO THE INTERNATIONAL TABLES FOR X-RAY CRYSTALLOGRAPHY)
 CRYSTAL FAMILY                       :  TRICLINIC   
 CRYSTAL CLASS  (GROTH - 1921)        :  TRICLINIC PEDIAL                     

 SPACE GROUP (NONCENTROSYMMETRIC)     :  P 1             

 LATTICE PARAMETERS  (ANGSTROMS AND DEGREES) - CONVENTIONAL CELL
        A           B           C        ALPHA        BETA       GAMMA
    10.85300    10.63950    21.18410    90.00000    90.00000    90.00000


 NUMBER OF IRREDUCIBLE ATOMS IN THE CONVENTIONAL CELL:  148

 INPUT COORDINATES

 ATOM AT. N.              COORDINATES
   1   8     5.132160000000E-01  3.322530000000E-01  5.946170000000E-01
   2   8     7.401600000000E-01  4.321540000000E-01  5.454330000000E-01
   3   8     1.571800000000E-01  5.012800000000E-02  6.200030000000E-01
   4   8     5.390410000000E-01  5.686950000000E-01  5.665770000000E-01
   5   8     1.004406000000E+00  6.801700000000E-01  6.567290000000E-01
   6   8     3.284140000000E-01  3.141170000000E-01  5.160370000000E-01
   7   8     9.127000000000E-01  9.516400000000E-02  6.551880000000E-01
   8   8     4.436700000000E-02  5.943300000000E-02  5.031290000000E-01
   9   8     4.968410000000E-01  8.025510000000E-01  6.232040000000E-01
  10   8     2.041400000000E-02  4.130220000000E-01  6.489020000000E-01
  11   8     2.246060000000E-01  8.081310000000E-01  6.304320000000E-01
  12   8     6.764600000000E-01  4.484440000000E-01  6.609250000000E-01
  13   8     1.339090000000E-01  6.298310000000E-01  5.547350000000E-01
  14   8     9.549980000000E-01  9.006500000000E-01  5.827140000000E-01
  15   8     7.051540000000E-01  7.425250000000E-01  5.499280000000E-01
  16   8     4.800000000000E-01  7.978410000000E-01  5.014290000000E-01
  17   8     3.793890000000E-01  1.229740000000E-01  5.967680000000E-01
  18   8     2.582800000000E-01  8.679270000000E-01  7.838830000000E-01
  19   8     2.692260000000E-01  3.374690000000E-01  6.320940000000E-01
  20   8     1.819160000000E-01  2.530600000000E-01  8.582570000000E-01
  21   8     2.068090000000E-01  5.591490000000E-01  6.722270000000E-01
  22   8     8.293740000000E-01  3.266380000000E-01  9.739340000000E-01
  23   8     3.538530000000E-01  9.430300000000E-02  8.097980000000E-01
  24   8     6.808820000000E-01  2.049560000000E-01  6.945350000000E-01
  25   8     1.385890000000E-01  6.985270000000E-01  8.923720000000E-01
  26   8     8.390230000000E-01  1.241700000000E-01  7.717540000000E-01
  27   8     4.899990000000E-01  4.993530000000E-01  8.631580000000E-01
  28   8     1.425230000000E-01  4.990320000000E-01  8.171590000000E-01
  29   8     5.721600000000E-02  9.173190000000E-01  7.045990000000E-01
  30   8     9.297940000000E-01  8.823700000000E-01  1.005875000000E+00
  31   8     8.628330000000E-01  5.927080000000E-01  7.362940000000E-01
  32   8     4.972000000000E-01  6.496340000000E-01  7.699780000000E-01
  33   8     8.281660000000E-01  8.472440000000E-01  7.121030000000E-01
  34   8     4.928350000000E-01 -4.211300000000E-02  9.807990000000E-01
  35   8     5.324270000000E-01  6.334740000000E-01  3.526600000000E-02
  36   8     5.116520000000E-01  8.923370000000E-01  7.821870000000E-01
  37   8     5.492310000000E-01  7.929690000000E-01  8.898070000000E-01
  38   8     8.865460000000E-01  1.405750000000E-01  8.888340000000E-01
  39   8     5.220780000000E-01  4.112420000000E-01  9.770990000000E-01
  40   8     6.970750000000E-01  2.413460000000E-01  8.603170000000E-01
  41   8     6.120600000000E-02 -4.351000000000E-03  8.233000000000E-01
  42   8     7.729600000000E-02  4.570700000000E-02  9.494100000000E-01
  43   8     3.070270000000E-01  5.305920000000E-01  9.373530000000E-01
  44   8     9.291510000000E-01  5.920470000000E-01  8.468760000000E-01
  45   8     6.675030000000E-01  1.335960000000E-01  9.727290000000E-01
  46   8     1.575080000000E-01  3.246670000000E-01  7.378090000000E-01
  47   8     9.636370000000E-01  3.231950000000E-01  8.224250000000E-01
  48   8     3.580490000000E-01 -4.789000000000E-03  6.949250000000E-01
  49   8     5.260730000000E-01  3.877240000000E-01  7.508140000000E-01
  50   8     7.689880000000E-01  3.834450000000E-01  7.727980000000E-01
  51   8     7.084390000000E-01  6.934780000000E-01  8.124050000000E-01
  52   8     7.474420000000E-01  4.890400000000E-01  8.783590000000E-01
  53   8     4.618000000000E-02  7.444880000000E-01  7.788340000000E-01
  54   8     9.324710000000E-01  5.483950000000E-01  9.668880000000E-01
  55   8     3.247740000000E-01  7.842300000000E-01  9.625360000000E-01
  56   8     4.072950000000E-01  2.856080000000E-01  8.873770000000E-01
  57  14     1.802300000000E-02  1.281000000000E-02  2.093700000000E-02
  58  14     2.945100000000E-01  2.876530000000E-01  2.128600000000E-02
  59  14     1.698760000000E-01  4.159650000000E-01  8.867200000000E-02
  60  14     4.303480000000E-01  1.742140000000E-01  8.967500000000E-02
  61  14     5.062400000000E-02  3.000110000000E-01  1.634360000000E-01
  62  14     2.950730000000E-01  5.338400000000E-02  1.536730000000E-01
  63  14     1.773510000000E-01  1.751620000000E-01  2.265150000000E-01
  64  14     4.110580000000E-01  4.186530000000E-01  2.255540000000E-01
  65  14     3.955000000000E-03  5.333550000000E-01  3.836100000000E-02
  66  14     2.584600000000E-01  7.504530000000E-01  3.944800000000E-02
  67  14     1.703010000000E-01  9.259200000000E-01  8.789200000000E-02
  68  14     4.332980000000E-01  6.812430000000E-01  9.220500000000E-02
  69  14     4.825200000000E-02  8.099240000000E-01  1.606160000000E-01
  70  14     3.028630000000E-01  5.429130000000E-01  1.517190000000E-01
  71  14     1.769480000000E-01  6.724010000000E-01  2.183530000000E-01
  72  14     4.144440000000E-01  9.286310000000E-01  2.228630000000E-01
  73  14     5.762970000000E-01  3.905400000000E-02  3.057800000000E-02
  74  14     8.707390000000E-01  3.523470000000E-01  6.006300000000E-02
  75  14     6.852160000000E-01  4.110450000000E-01  1.080280000000E-01
  76  14     9.393300000000E-01  1.599070000000E-01  9.732300000000E-02
  77  14     5.437970000000E-01  2.907620000000E-01  1.640930000000E-01
  78  14     7.961910000000E-01  4.526800000000E-02  1.594610000000E-01
  79  14     6.739860000000E-01  1.714590000000E-01  2.271500000000E-01
  80  14     9.192130000000E-01  4.249770000000E-01  2.270630000000E-01
  81  14     6.134990000000E-01  5.064210000000E-01  1.829500000000E-02
  82  14     8.761980000000E-01  8.254050000000E-01  9.368460000000E-01
  83  14     6.996030000000E-01  8.984590000000E-01  9.358700000000E-02
  84  14     9.118350000000E-01  6.843930000000E-01  1.049780000000E-01
  85  14     5.488610000000E-01  8.093790000000E-01  1.595980000000E-01
  86  14     7.905480000000E-01  5.580530000000E-01  1.684070000000E-01
  87  14     6.647330000000E-01  6.854440000000E-01  2.291860000000E-01
  88  14     9.201520000000E-01  9.278700000000E-01  2.291410000000E-01
  89  14     4.828700000000E-02  5.485000000000E-02  2.919140000000E-01
  90  14     2.918480000000E-01  2.969560000000E-01  2.978620000000E-01
  91  14     5.031900000000E-02  5.529650000000E-01  2.863140000000E-01
  92  14     2.919480000000E-01  8.001630000000E-01  2.881850000000E-01
  93  14     5.423300000000E-01  4.980700000000E-02  2.893230000000E-01
  94  14     7.948520000000E-01  3.020650000000E-01  2.926260000000E-01
  95  14     5.351030000000E-01  5.530930000000E-01  2.859660000000E-01
  96  14     7.923830000000E-01  8.024260000000E-01  2.965290000000E-01
  97  14     1.586560000000E-01  4.279420000000E-01  3.595100000000E-01
  98  14     4.209610000000E-01  1.682740000000E-01  3.612410000000E-01
  99  14     2.575500000000E-02  3.193050000000E-01  4.315850000000E-01
 100  14     3.103210000000E-01  2.410600000000E-02  4.292210000000E-01
 101  14     1.437090000000E-01  1.477180000000E-01  4.658010000000E-01
 102  14     4.023020000000E-01  3.948110000000E-01  4.612510000000E-01
 103  14     1.708060000000E-01  9.246460000000E-01  3.570360000000E-01
 104  14     4.166930000000E-01  6.768650000000E-01  3.547120000000E-01
 105  14     4.639900000000E-02  7.987190000000E-01  4.241670000000E-01
 106  14     2.874730000000E-01  5.600130000000E-01  4.208600000000E-01
 107  14     1.931370000000E-01  7.050570000000E-01  4.916020000000E-01
 108  14     3.345480000000E-01  8.752700000000E-01  5.234000000000E-01
 109  14     6.620290000000E-01  4.343580000000E-01  3.503130000000E-01
 110  14     9.249530000000E-01  1.815270000000E-01  3.577150000000E-01
 111  14     5.673760000000E-01  2.901840000000E-01  4.182250000000E-01
 112  14     8.002420000000E-01  5.560200000000E-02  4.202970000000E-01
 113  14     6.964180000000E-01  1.844470000000E-01  4.904720000000E-01
 114  14     8.138430000000E-01  3.710260000000E-01  4.810600000000E-01
 115  14     6.638310000000E-01  9.351560000000E-01  3.597920000000E-01
 116  14     9.285730000000E-01  6.723040000000E-01  3.551720000000E-01
 117  14     5.504640000000E-01  7.898120000000E-01  4.227100000000E-01
 118  14     7.934530000000E-01  5.506670000000E-01  4.161290000000E-01
 119  14     7.462710000000E-01  7.452920000000E-01  4.659290000000E-01
 120  14     9.364050000000E-01  9.428080000000E-01  4.868000000000E-01
 121  14     3.740590000000E-01  2.731650000000E-01  5.882830000000E-01
 122  14     2.278700000000E-02 -6.955000000000E-03  6.386440000000E-01
 123  14     1.542480000000E-01  6.772530000000E-01  6.285230000000E-01
 124  14     6.178820000000E-01  4.432130000000E-01  5.898070000000E-01
 125  14     3.033730000000E-01 -9.756000000000E-03  6.223980000000E-01
 126  14     5.519480000000E-01  7.242930000000E-01  5.687470000000E-01
 127  14     7.802600000000E-01  9.050980000000E-01  5.723430000000E-01
 128  14     3.055780000000E-01  1.642070000000E-01  8.774200000000E-01
 129  14     7.928960000000E-01  4.884950000000E-01  9.509350000000E-01
 130  14     3.779820000000E-01  9.636790000000E-01  7.688630000000E-01
 131  14     7.859660000000E-01  8.521000000000E-02  7.008530000000E-01
 132  14     6.885600000000E-02  6.263880000000E-01  8.358350000000E-01
 133  14     9.213610000000E-01  7.353350000000E-01  7.185700000000E-01
 134  14     5.674330000000E-01  7.572460000000E-01  8.136220000000E-01
 135  14     2.943790000000E-01  6.754630000000E-01  9.015850000000E-01
 136  14     8.317100000000E-01  2.442860000000E-01  8.204230000000E-01
 137  14     8.314020000000E-01  1.593040000000E-01  9.690170000000E-01
 138  14     4.179110000000E-01  4.274460000000E-01  9.214790000000E-01
 139  14     1.102300000000E-01  3.453580000000E-01  8.098520000000E-01
 140  14     1.141720000000E-01  8.930170000000E-01  7.732700000000E-01
 141  14     5.916350000000E-01  1.503910000000E-01  8.927490000000E-01
 142  14     6.587550000000E-01  3.497720000000E-01  7.198680000000E-01
 143  14     9.081330000000E-01  5.174230000000E-01  6.387950000000E-01
 144  14    -1.677900000000E-02  7.007000000000E-03  8.899120000000E-01
 145  14     1.656860000000E-01  4.086160000000E-01  6.733900000000E-01
 146  14     4.326890000000E-01  8.857530000000E-01  9.187270000000E-01
 147  14     4.539180000000E-01  5.053400000000E-01  7.882130000000E-01
 148  14     7.966220000000E-01  5.628860000000E-01  8.117660000000E-01

 *******************************************************************************

 << INFORMATION >>: FROM NOW ON, ALL COORDINATES REFER TO THE PRIMITIVE CELL

 *******************************************************************************

 LATTICE PARAMETERS  (ANGSTROMS AND DEGREES) - PRIMITIVE CELL
       A          B          C         ALPHA     BETA     GAMMA        VOLUME
   10.85300   10.63950   21.18410    90.00000  90.00000  90.00000   2446.138481

 COORDINATES OF THE EQUIVALENT ATOMS (FRACTIONAL UNITS)

 N. ATOM EQUIV AT. N.          X                  Y                  Z

   1   1   1    8 O    -4.86784000000E-01  3.32253000000E-01 -4.05383000000E-01

   2   2   1    8 O    -2.59840000000E-01  4.32154000000E-01 -4.54567000000E-01

   3   3   1    8 O     1.57180000000E-01  5.01280000000E-02 -3.79997000000E-01

   4   4   1    8 O    -4.60959000000E-01 -4.31305000000E-01 -4.33423000000E-01

   5   5   1    8 O     4.40600000000E-03 -3.19830000000E-01 -3.43271000000E-01

   6   6   1    8 O     3.28414000000E-01  3.14117000000E-01 -4.83963000000E-01

   7   7   1    8 O    -8.73000000000E-02  9.51640000000E-02 -3.44812000000E-01

   8   8   1    8 O     4.43670000000E-02  5.94330000000E-02 -4.96871000000E-01

   9   9   1    8 O     4.96841000000E-01 -1.97449000000E-01 -3.76796000000E-01

  10  10   1    8 O     2.04140000000E-02  4.13022000000E-01 -3.51098000000E-01

  11  11   1    8 O     2.24606000000E-01 -1.91869000000E-01 -3.69568000000E-01

  12  12   1    8 O    -3.23540000000E-01  4.48444000000E-01 -3.39075000000E-01

  13  13   1    8 O     1.33909000000E-01 -3.70169000000E-01 -4.45265000000E-01

  14  14   1    8 O    -4.50020000000E-02 -9.93500000000E-02 -4.17286000000E-01

  15  15   1    8 O    -2.94846000000E-01 -2.57475000000E-01 -4.50072000000E-01

  16  16   1    8 O     4.80000000000E-01 -2.02159000000E-01 -4.98571000000E-01

  17  17   1    8 O     3.79389000000E-01  1.22974000000E-01 -4.03232000000E-01

  18  18   1    8 O     2.58280000000E-01 -1.32073000000E-01 -2.16117000000E-01

  19  19   1    8 O     2.69226000000E-01  3.37469000000E-01 -3.67906000000E-01

  20  20   1    8 O     1.81916000000E-01  2.53060000000E-01 -1.41743000000E-01

  21  21   1    8 O     2.06809000000E-01 -4.40851000000E-01 -3.27773000000E-01

  22  22   1    8 O    -1.70626000000E-01  3.26638000000E-01 -2.60660000000E-02

  23  23   1    8 O     3.53853000000E-01  9.43030000000E-02 -1.90202000000E-01

  24  24   1    8 O    -3.19118000000E-01  2.04956000000E-01 -3.05465000000E-01

  25  25   1    8 O     1.38589000000E-01 -3.01473000000E-01 -1.07628000000E-01

  26  26   1    8 O    -1.60977000000E-01  1.24170000000E-01 -2.28246000000E-01

  27  27   1    8 O     4.89999000000E-01  4.99353000000E-01 -1.36842000000E-01

  28  28   1    8 O     1.42523000000E-01  4.99032000000E-01 -1.82841000000E-01

  29  29   1    8 O     5.72160000000E-02 -8.26810000000E-02 -2.95401000000E-01

  30  30   1    8 O    -7.02060000000E-02 -1.17630000000E-01  5.87500000000E-03

  31  31   1    8 O    -1.37167000000E-01 -4.07292000000E-01 -2.63706000000E-01

  32  32   1    8 O     4.97200000000E-01 -3.50366000000E-01 -2.30022000000E-01

  33  33   1    8 O    -1.71834000000E-01 -1.52756000000E-01 -2.87897000000E-01

  34  34   1    8 O     4.92835000000E-01 -4.21130000000E-02 -1.92010000000E-02

  35  35   1    8 O    -4.67573000000E-01 -3.66526000000E-01  3.52660000000E-02

  36  36   1    8 O    -4.88348000000E-01 -1.07663000000E-01 -2.17813000000E-01

  37  37   1    8 O    -4.50769000000E-01 -2.07031000000E-01 -1.10193000000E-01

  38  38   1    8 O    -1.13454000000E-01  1.40575000000E-01 -1.11166000000E-01

  39  39   1    8 O    -4.77922000000E-01  4.11242000000E-01 -2.29010000000E-02

  40  40   1    8 O    -3.02925000000E-01  2.41346000000E-01 -1.39683000000E-01

  41  41   1    8 O     6.12060000000E-02 -4.35100000000E-03 -1.76700000000E-01

  42  42   1    8 O     7.72960000000E-02  4.57070000000E-02 -5.05900000000E-02

  43  43   1    8 O     3.07027000000E-01 -4.69408000000E-01 -6.26470000000E-02

  44  44   1    8 O    -7.08490000000E-02 -4.07953000000E-01 -1.53124000000E-01

  45  45   1    8 O    -3.32497000000E-01  1.33596000000E-01 -2.72710000000E-02

  46  46   1    8 O     1.57508000000E-01  3.24667000000E-01 -2.62191000000E-01

  47  47   1    8 O    -3.63630000000E-02  3.23195000000E-01 -1.77575000000E-01

  48  48   1    8 O     3.58049000000E-01 -4.78900000000E-03 -3.05075000000E-01

  49  49   1    8 O    -4.73927000000E-01  3.87724000000E-01 -2.49186000000E-01

  50  50   1    8 O    -2.31012000000E-01  3.83445000000E-01 -2.27202000000E-01

  51  51   1    8 O    -2.91561000000E-01 -3.06522000000E-01 -1.87595000000E-01

  52  52   1    8 O    -2.52558000000E-01  4.89040000000E-01 -1.21641000000E-01

  53  53   1    8 O     4.61800000000E-02 -2.55512000000E-01 -2.21166000000E-01

  54  54   1    8 O    -6.75290000000E-02 -4.51605000000E-01 -3.31120000000E-02

  55  55   1    8 O     3.24774000000E-01 -2.15770000000E-01 -3.74640000000E-02

  56  56   1    8 O     4.07295000000E-01  2.85608000000E-01 -1.12623000000E-01

  57  57   1   14 SI    1.80230000000E-02  1.28100000000E-02  2.09370000000E-02

  58  58   1   14 SI    2.94510000000E-01  2.87653000000E-01  2.12860000000E-02

  59  59   1   14 SI    1.69876000000E-01  4.15965000000E-01  8.86720000000E-02

  60  60   1   14 SI    4.30348000000E-01  1.74214000000E-01  8.96750000000E-02

  61  61   1   14 SI    5.06240000000E-02  3.00011000000E-01  1.63436000000E-01

  62  62   1   14 SI    2.95073000000E-01  5.33840000000E-02  1.53673000000E-01

  63  63   1   14 SI    1.77351000000E-01  1.75162000000E-01  2.26515000000E-01

  64  64   1   14 SI    4.11058000000E-01  4.18653000000E-01  2.25554000000E-01

  65  65   1   14 SI    3.95500000000E-03 -4.66645000000E-01  3.83610000000E-02

  66  66   1   14 SI    2.58460000000E-01 -2.49547000000E-01  3.94480000000E-02

  67  67   1   14 SI    1.70301000000E-01 -7.40800000000E-02  8.78920000000E-02

  68  68   1   14 SI    4.33298000000E-01 -3.18757000000E-01  9.22050000000E-02

  69  69   1   14 SI    4.82520000000E-02 -1.90076000000E-01  1.60616000000E-01

  70  70   1   14 SI    3.02863000000E-01 -4.57087000000E-01  1.51719000000E-01

  71  71   1   14 SI    1.76948000000E-01 -3.27599000000E-01  2.18353000000E-01

  72  72   1   14 SI    4.14444000000E-01 -7.13690000000E-02  2.22863000000E-01

  73  73   1   14 SI   -4.23703000000E-01  3.90540000000E-02  3.05780000000E-02

  74  74   1   14 SI   -1.29261000000E-01  3.52347000000E-01  6.00630000000E-02

  75  75   1   14 SI   -3.14784000000E-01  4.11045000000E-01  1.08028000000E-01

  76  76   1   14 SI   -6.06700000000E-02  1.59907000000E-01  9.73230000000E-02

  77  77   1   14 SI   -4.56203000000E-01  2.90762000000E-01  1.64093000000E-01

  78  78   1   14 SI   -2.03809000000E-01  4.52680000000E-02  1.59461000000E-01

  79  79   1   14 SI   -3.26014000000E-01  1.71459000000E-01  2.27150000000E-01

  80  80   1   14 SI   -8.07870000000E-02  4.24977000000E-01  2.27063000000E-01

  81  81   1   14 SI   -3.86501000000E-01 -4.93579000000E-01  1.82950000000E-02

  82  82   1   14 SI   -1.23802000000E-01 -1.74595000000E-01 -6.31540000000E-02

  83  83   1   14 SI   -3.00397000000E-01 -1.01541000000E-01  9.35870000000E-02

  84  84   1   14 SI   -8.81650000000E-02 -3.15607000000E-01  1.04978000000E-01

  85  85   1   14 SI   -4.51139000000E-01 -1.90621000000E-01  1.59598000000E-01

  86  86   1   14 SI   -2.09452000000E-01 -4.41947000000E-01  1.68407000000E-01

  87  87   1   14 SI   -3.35267000000E-01 -3.14556000000E-01  2.29186000000E-01

  88  88   1   14 SI   -7.98480000000E-02 -7.21300000000E-02  2.29141000000E-01

  89  89   1   14 SI    4.82870000000E-02  5.48500000000E-02  2.91914000000E-01

  90  90   1   14 SI    2.91848000000E-01  2.96956000000E-01  2.97862000000E-01

  91  91   1   14 SI    5.03190000000E-02 -4.47035000000E-01  2.86314000000E-01

  92  92   1   14 SI    2.91948000000E-01 -1.99837000000E-01  2.88185000000E-01

  93  93   1   14 SI   -4.57670000000E-01  4.98070000000E-02  2.89323000000E-01

  94  94   1   14 SI   -2.05148000000E-01  3.02065000000E-01  2.92626000000E-01

  95  95   1   14 SI   -4.64897000000E-01 -4.46907000000E-01  2.85966000000E-01

  96  96   1   14 SI   -2.07617000000E-01 -1.97574000000E-01  2.96529000000E-01

  97  97   1   14 SI    1.58656000000E-01  4.27942000000E-01  3.59510000000E-01

  98  98   1   14 SI    4.20961000000E-01  1.68274000000E-01  3.61241000000E-01

  99  99   1   14 SI    2.57550000000E-02  3.19305000000E-01  4.31585000000E-01

 100 100   1   14 SI    3.10321000000E-01  2.41060000000E-02  4.29221000000E-01

 101 101   1   14 SI    1.43709000000E-01  1.47718000000E-01  4.65801000000E-01

 102 102   1   14 SI    4.02302000000E-01  3.94811000000E-01  4.61251000000E-01

 103 103   1   14 SI    1.70806000000E-01 -7.53540000000E-02  3.57036000000E-01

 104 104   1   14 SI    4.16693000000E-01 -3.23135000000E-01  3.54712000000E-01

 105 105   1   14 SI    4.63990000000E-02 -2.01281000000E-01  4.24167000000E-01

 106 106   1   14 SI    2.87473000000E-01 -4.39987000000E-01  4.20860000000E-01

 107 107   1   14 SI    1.93137000000E-01 -2.94943000000E-01  4.91602000000E-01

 108 108   1   14 SI    3.34548000000E-01 -1.24730000000E-01 -4.76600000000E-01

 109 109   1   14 SI   -3.37971000000E-01  4.34358000000E-01  3.50313000000E-01

 110 110   1   14 SI   -7.50470000000E-02  1.81527000000E-01  3.57715000000E-01

 111 111   1   14 SI   -4.32624000000E-01  2.90184000000E-01  4.18225000000E-01

 112 112   1   14 SI   -1.99758000000E-01  5.56020000000E-02  4.20297000000E-01

 113 113   1   14 SI   -3.03582000000E-01  1.84447000000E-01  4.90472000000E-01

 114 114   1   14 SI   -1.86157000000E-01  3.71026000000E-01  4.81060000000E-01

 115 115   1   14 SI   -3.36169000000E-01 -6.48440000000E-02  3.59792000000E-01

 116 116   1   14 SI   -7.14270000000E-02 -3.27696000000E-01  3.55172000000E-01

 117 117   1   14 SI   -4.49536000000E-01 -2.10188000000E-01  4.22710000000E-01

 118 118   1   14 SI   -2.06547000000E-01 -4.49333000000E-01  4.16129000000E-01

 119 119   1   14 SI   -2.53729000000E-01 -2.54708000000E-01  4.65929000000E-01

 120 120   1   14 SI   -6.35950000000E-02 -5.71920000000E-02  4.86800000000E-01

 121 121   1   14 SI    3.74059000000E-01  2.73165000000E-01 -4.11717000000E-01

 122 122   1   14 SI    2.27870000000E-02 -6.95500000000E-03 -3.61356000000E-01

 123 123   1   14 SI    1.54248000000E-01 -3.22747000000E-01 -3.71477000000E-01

 124 124   1   14 SI   -3.82118000000E-01  4.43213000000E-01 -4.10193000000E-01

 125 125   1   14 SI    3.03373000000E-01 -9.75600000000E-03 -3.77602000000E-01

 126 126   1   14 SI   -4.48052000000E-01 -2.75707000000E-01 -4.31253000000E-01

 127 127   1   14 SI   -2.19740000000E-01 -9.49020000000E-02 -4.27657000000E-01

 128 128   1   14 SI    3.05578000000E-01  1.64207000000E-01 -1.22580000000E-01

 129 129   1   14 SI   -2.07104000000E-01  4.88495000000E-01 -4.90650000000E-02

 130 130   1   14 SI    3.77982000000E-01 -3.63210000000E-02 -2.31137000000E-01

 131 131   1   14 SI   -2.14034000000E-01  8.52100000000E-02 -2.99147000000E-01

 132 132   1   14 SI    6.88560000000E-02 -3.73612000000E-01 -1.64165000000E-01

 133 133   1   14 SI   -7.86390000000E-02 -2.64665000000E-01 -2.81430000000E-01

 134 134   1   14 SI   -4.32567000000E-01 -2.42754000000E-01 -1.86378000000E-01

 135 135   1   14 SI    2.94379000000E-01 -3.24537000000E-01 -9.84150000000E-02

 136 136   1   14 SI   -1.68290000000E-01  2.44286000000E-01 -1.79577000000E-01

 137 137   1   14 SI   -1.68598000000E-01  1.59304000000E-01 -3.09830000000E-02

 138 138   1   14 SI    4.17911000000E-01  4.27446000000E-01 -7.85210000000E-02

 139 139   1   14 SI    1.10230000000E-01  3.45358000000E-01 -1.90148000000E-01

 140 140   1   14 SI    1.14172000000E-01 -1.06983000000E-01 -2.26730000000E-01

 141 141   1   14 SI   -4.08365000000E-01  1.50391000000E-01 -1.07251000000E-01

 142 142   1   14 SI   -3.41245000000E-01  3.49772000000E-01 -2.80132000000E-01

 143 143   1   14 SI   -9.18670000000E-02 -4.82577000000E-01 -3.61205000000E-01

 144 144   1   14 SI   -1.67790000000E-02  7.00700000000E-03 -1.10088000000E-01

 145 145   1   14 SI    1.65686000000E-01  4.08616000000E-01 -3.26610000000E-01

 146 146   1   14 SI    4.32689000000E-01 -1.14247000000E-01 -8.12730000000E-02

 147 147   1   14 SI    4.53918000000E-01 -4.94660000000E-01 -2.11787000000E-01

 148 148   1   14 SI   -2.03378000000E-01 -4.37114000000E-01 -1.88234000000E-01

 NUMBER OF SYMMETRY OPERATORS         :    1
 *******************************************************************************
 * GEOMETRY EDITING - INPUT COORDINATES ARE GIVEN IN ANGSTROM         
 *******************************************************************************

 GCALCO - MAX INDICES DIRECT LATTICE VECTOR    18    19     9
 NO.OF VECTORS CREATED 6999 STARS 1060 RMAX   301.97758 BOHR

 GEOMETRY FOR WAVE FUNCTION - DIMENSIONALITY OF THE SYSTEM    3
 (NON PERIODIC DIRECTION: LATTICE PARAMETER FORMALLY SET TO 500)
 *******************************************************************************
 LATTICE PARAMETERS (ANGSTROMS AND DEGREES) - BOHR = 0.5291772083 ANGSTROM
 PRIMITIVE CELL - CENTRING CODE 1/0 VOLUME=  2446.138481 - DENSITY  2.355 g/cm^3
         A              B              C           ALPHA      BETA       GAMMA 
    10.85300000    10.63950000    21.18410000    90.000000  90.000000  90.000000
 *******************************************************************************
 ATOMS IN THE ASYMMETRIC UNIT  148 - ATOMS IN THE UNIT CELL:  148
     ATOM              X/A                 Y/B                 Z/C    
 *******************************************************************************
   1 T   8 O    -4.867840000000E-01  3.322530000000E-01 -4.053830000000E-01
   2 T   8 O    -2.598400000000E-01  4.321540000000E-01 -4.545670000000E-01
   3 T   8 O     1.571800000000E-01  5.012800000000E-02 -3.799970000000E-01
   4 T   8 O    -4.609590000000E-01 -4.313050000000E-01 -4.334230000000E-01
   5 T   8 O     4.406000000000E-03 -3.198300000000E-01 -3.432710000000E-01
   6 T   8 O     3.284140000000E-01  3.141170000000E-01 -4.839630000000E-01
   7 T   8 O    -8.730000000000E-02  9.516400000000E-02 -3.448120000000E-01
   8 T   8 O     4.436700000000E-02  5.943300000000E-02 -4.968710000000E-01
   9 T   8 O     4.968410000000E-01 -1.974490000000E-01 -3.767960000000E-01
  10 T   8 O     2.041400000000E-02  4.130220000000E-01 -3.510980000000E-01
  11 T   8 O     2.246060000000E-01 -1.918690000000E-01 -3.695680000000E-01
  12 T   8 O    -3.235400000000E-01  4.484440000000E-01 -3.390750000000E-01
  13 T   8 O     1.339090000000E-01 -3.701690000000E-01 -4.452650000000E-01
  14 T   8 O    -4.500200000000E-02 -9.935000000000E-02 -4.172860000000E-01
  15 T   8 O    -2.948460000000E-01 -2.574750000000E-01 -4.500720000000E-01
  16 T   8 O     4.800000000000E-01 -2.021590000000E-01 -4.985710000000E-01
  17 T   8 O     3.793890000000E-01  1.229740000000E-01 -4.032320000000E-01
  18 T   8 O     2.582800000000E-01 -1.320730000000E-01 -2.161170000000E-01
  19 T   8 O     2.692260000000E-01  3.374690000000E-01 -3.679060000000E-01
  20 T   8 O     1.819160000000E-01  2.530600000000E-01 -1.417430000000E-01
  21 T   8 O     2.068090000000E-01 -4.408510000000E-01 -3.277730000000E-01
  22 T   8 O    -1.706260000000E-01  3.266380000000E-01 -2.606600000000E-02
  23 T   8 O     3.538530000000E-01  9.430300000000E-02 -1.902020000000E-01
  24 T   8 O    -3.191180000000E-01  2.049560000000E-01 -3.054650000000E-01
  25 T   8 O     1.385890000000E-01 -3.014730000000E-01 -1.076280000000E-01
  26 T   8 O    -1.609770000000E-01  1.241700000000E-01 -2.282460000000E-01
  27 T   8 O     4.899990000000E-01  4.993530000000E-01 -1.368420000000E-01
  28 T   8 O     1.425230000000E-01  4.990320000000E-01 -1.828410000000E-01
  29 T   8 O     5.721600000000E-02 -8.268100000000E-02 -2.954010000000E-01
  30 T   8 O    -7.020600000000E-02 -1.176300000000E-01  5.875000000000E-03
  31 T   8 O    -1.371670000000E-01 -4.072920000000E-01 -2.637060000000E-01
  32 T   8 O     4.972000000000E-01 -3.503660000000E-01 -2.300220000000E-01
  33 T   8 O    -1.718340000000E-01 -1.527560000000E-01 -2.878970000000E-01
  34 T   8 O     4.928350000000E-01 -4.211300000000E-02 -1.920100000000E-02
  35 T   8 O    -4.675730000000E-01 -3.665260000000E-01  3.526600000000E-02
  36 T   8 O    -4.883480000000E-01 -1.076630000000E-01 -2.178130000000E-01
  37 T   8 O    -4.507690000000E-01 -2.070310000000E-01 -1.101930000000E-01
  38 T   8 O    -1.134540000000E-01  1.405750000000E-01 -1.111660000000E-01
  39 T   8 O    -4.779220000000E-01  4.112420000000E-01 -2.290100000000E-02
  40 T   8 O    -3.029250000000E-01  2.413460000000E-01 -1.396830000000E-01
  41 T   8 O     6.120600000000E-02 -4.351000000000E-03 -1.767000000000E-01
  42 T   8 O     7.729600000000E-02  4.570700000000E-02 -5.059000000000E-02
  43 T   8 O     3.070270000000E-01 -4.694080000000E-01 -6.264700000000E-02
  44 T   8 O    -7.084900000000E-02 -4.079530000000E-01 -1.531240000000E-01
  45 T   8 O    -3.324970000000E-01  1.335960000000E-01 -2.727100000000E-02
  46 T   8 O     1.575080000000E-01  3.246670000000E-01 -2.621910000000E-01
  47 T   8 O    -3.636300000000E-02  3.231950000000E-01 -1.775750000000E-01
  48 T   8 O     3.580490000000E-01 -4.789000000000E-03 -3.050750000000E-01
  49 T   8 O    -4.739270000000E-01  3.877240000000E-01 -2.491860000000E-01
  50 T   8 O    -2.310120000000E-01  3.834450000000E-01 -2.272020000000E-01
  51 T   8 O    -2.915610000000E-01 -3.065220000000E-01 -1.875950000000E-01
  52 T   8 O    -2.525580000000E-01  4.890400000000E-01 -1.216410000000E-01
  53 T   8 O     4.618000000000E-02 -2.555120000000E-01 -2.211660000000E-01
  54 T   8 O    -6.752900000000E-02 -4.516050000000E-01 -3.311200000000E-02
  55 T   8 O     3.247740000000E-01 -2.157700000000E-01 -3.746400000000E-02
  56 T   8 O     4.072950000000E-01  2.856080000000E-01 -1.126230000000E-01
  57 T  14 SI    1.802300000000E-02  1.281000000000E-02  2.093700000000E-02
  58 T  14 SI    2.945100000000E-01  2.876530000000E-01  2.128600000000E-02
  59 T  14 SI    1.698760000000E-01  4.159650000000E-01  8.867200000000E-02
  60 T  14 SI    4.303480000000E-01  1.742140000000E-01  8.967500000000E-02
  61 T  14 SI    5.062400000000E-02  3.000110000000E-01  1.634360000000E-01
  62 T  14 SI    2.950730000000E-01  5.338400000000E-02  1.536730000000E-01
  63 T  14 SI    1.773510000000E-01  1.751620000000E-01  2.265150000000E-01
  64 T  14 SI    4.110580000000E-01  4.186530000000E-01  2.255540000000E-01
  65 T  14 SI    3.955000000000E-03 -4.666450000000E-01  3.836100000000E-02
  66 T  14 SI    2.584600000000E-01 -2.495470000000E-01  3.944800000000E-02
  67 T  14 SI    1.703010000000E-01 -7.408000000000E-02  8.789200000000E-02
  68 T  14 SI    4.332980000000E-01 -3.187570000000E-01  9.220500000000E-02
  69 T  14 SI    4.825200000000E-02 -1.900760000000E-01  1.606160000000E-01
  70 T  14 SI    3.028630000000E-01 -4.570870000000E-01  1.517190000000E-01
  71 T  14 SI    1.769480000000E-01 -3.275990000000E-01  2.183530000000E-01
  72 T  14 SI    4.144440000000E-01 -7.136900000000E-02  2.228630000000E-01
  73 T  14 SI   -4.237030000000E-01  3.905400000000E-02  3.057800000000E-02
  74 T  14 SI   -1.292610000000E-01  3.523470000000E-01  6.006300000000E-02
  75 T  14 SI   -3.147840000000E-01  4.110450000000E-01  1.080280000000E-01
  76 T  14 SI   -6.067000000000E-02  1.599070000000E-01  9.732300000000E-02
  77 T  14 SI   -4.562030000000E-01  2.907620000000E-01  1.640930000000E-01
  78 T  14 SI   -2.038090000000E-01  4.526800000000E-02  1.594610000000E-01
  79 T  14 SI   -3.260140000000E-01  1.714590000000E-01  2.271500000000E-01
  80 T  14 SI   -8.078700000000E-02  4.249770000000E-01  2.270630000000E-01
  81 T  14 SI   -3.865010000000E-01 -4.935790000000E-01  1.829500000000E-02
  82 T  14 SI   -1.238020000000E-01 -1.745950000000E-01 -6.315400000000E-02
  83 T  14 SI   -3.003970000000E-01 -1.015410000000E-01  9.358700000000E-02
  84 T  14 SI   -8.816500000000E-02 -3.156070000000E-01  1.049780000000E-01
  85 T  14 SI   -4.511390000000E-01 -1.906210000000E-01  1.595980000000E-01
  86 T  14 SI   -2.094520000000E-01 -4.419470000000E-01  1.684070000000E-01
  87 T  14 SI   -3.352670000000E-01 -3.145560000000E-01  2.291860000000E-01
  88 T  14 SI   -7.984800000000E-02 -7.213000000000E-02  2.291410000000E-01
  89 T  14 SI    4.828700000000E-02  5.485000000000E-02  2.919140000000E-01
  90 T  14 SI    2.918480000000E-01  2.969560000000E-01  2.978620000000E-01
  91 T  14 SI    5.031900000000E-02 -4.470350000000E-01  2.863140000000E-01
  92 T  14 SI    2.919480000000E-01 -1.998370000000E-01  2.881850000000E-01
  93 T  14 SI   -4.576700000000E-01  4.980700000000E-02  2.893230000000E-01
  94 T  14 SI   -2.051480000000E-01  3.020650000000E-01  2.926260000000E-01
  95 T  14 SI   -4.648970000000E-01 -4.469070000000E-01  2.859660000000E-01
  96 T  14 SI   -2.076170000000E-01 -1.975740000000E-01  2.965290000000E-01
  97 T  14 SI    1.586560000000E-01  4.279420000000E-01  3.595100000000E-01
  98 T  14 SI    4.209610000000E-01  1.682740000000E-01  3.612410000000E-01
  99 T  14 SI    2.575500000000E-02  3.193050000000E-01  4.315850000000E-01
 100 T  14 SI    3.103210000000E-01  2.410600000000E-02  4.292210000000E-01
 101 T  14 SI    1.437090000000E-01  1.477180000000E-01  4.658010000000E-01
 102 T  14 SI    4.023020000000E-01  3.948110000000E-01  4.612510000000E-01
 103 T  14 SI    1.708060000000E-01 -7.535400000000E-02  3.570360000000E-01
 104 T  14 SI    4.166930000000E-01 -3.231350000000E-01  3.547120000000E-01
 105 T  14 SI    4.639900000000E-02 -2.012810000000E-01  4.241670000000E-01
 106 T  14 SI    2.874730000000E-01 -4.399870000000E-01  4.208600000000E-01
 107 T  14 SI    1.931370000000E-01 -2.949430000000E-01  4.916020000000E-01
 108 T  14 SI    3.345480000000E-01 -1.247300000000E-01 -4.766000000000E-01
 109 T  14 SI   -3.379710000000E-01  4.343580000000E-01  3.503130000000E-01
 110 T  14 SI   -7.504700000000E-02  1.815270000000E-01  3.577150000000E-01
 111 T  14 SI   -4.326240000000E-01  2.901840000000E-01  4.182250000000E-01
 112 T  14 SI   -1.997580000000E-01  5.560200000000E-02  4.202970000000E-01
 113 T  14 SI   -3.035820000000E-01  1.844470000000E-01  4.904720000000E-01
 114 T  14 SI   -1.861570000000E-01  3.710260000000E-01  4.810600000000E-01
 115 T  14 SI   -3.361690000000E-01 -6.484400000000E-02  3.597920000000E-01
 116 T  14 SI   -7.142700000000E-02 -3.276960000000E-01  3.551720000000E-01
 117 T  14 SI   -4.495360000000E-01 -2.101880000000E-01  4.227100000000E-01
 118 T  14 SI   -2.065470000000E-01 -4.493330000000E-01  4.161290000000E-01
 119 T  14 SI   -2.537290000000E-01 -2.547080000000E-01  4.659290000000E-01
 120 T  14 SI   -6.359500000000E-02 -5.719200000000E-02  4.868000000000E-01
 121 T  14 SI    3.740590000000E-01  2.731650000000E-01 -4.117170000000E-01
 122 T  14 SI    2.278700000000E-02 -6.955000000000E-03 -3.613560000000E-01
 123 T  14 SI    1.542480000000E-01 -3.227470000000E-01 -3.714770000000E-01
 124 T  14 SI   -3.821180000000E-01  4.432130000000E-01 -4.101930000000E-01
 125 T  14 SI    3.033730000000E-01 -9.756000000000E-03 -3.776020000000E-01
 126 T  14 SI   -4.480520000000E-01 -2.757070000000E-01 -4.312530000000E-01
 127 T  14 SI   -2.197400000000E-01 -9.490200000000E-02 -4.276570000000E-01
 128 T  14 SI    3.055780000000E-01  1.642070000000E-01 -1.225800000000E-01
 129 T  14 SI   -2.071040000000E-01  4.884950000000E-01 -4.906500000000E-02
 130 T  14 SI    3.779820000000E-01 -3.632100000000E-02 -2.311370000000E-01
 131 T  14 SI   -2.140340000000E-01  8.521000000000E-02 -2.991470000000E-01
 132 T  14 SI    6.885600000000E-02 -3.736120000000E-01 -1.641650000000E-01
 133 T  14 SI   -7.863900000000E-02 -2.646650000000E-01 -2.814300000000E-01
 134 T  14 SI   -4.325670000000E-01 -2.427540000000E-01 -1.863780000000E-01
 135 T  14 SI    2.943790000000E-01 -3.245370000000E-01 -9.841500000000E-02
 136 T  14 SI   -1.682900000000E-01  2.442860000000E-01 -1.795770000000E-01
 137 T  14 SI   -1.685980000000E-01  1.593040000000E-01 -3.098300000000E-02
 138 T  14 SI    4.179110000000E-01  4.274460000000E-01 -7.852100000000E-02
 139 T  14 SI    1.102300000000E-01  3.453580000000E-01 -1.901480000000E-01
 140 T  14 SI    1.141720000000E-01 -1.069830000000E-01 -2.267300000000E-01
 141 T  14 SI   -4.083650000000E-01  1.503910000000E-01 -1.072510000000E-01
 142 T  14 SI   -3.412450000000E-01  3.497720000000E-01 -2.801320000000E-01
 143 T  14 SI   -9.186700000000E-02 -4.825770000000E-01 -3.612050000000E-01
 144 T  14 SI   -1.677900000000E-02  7.007000000000E-03 -1.100880000000E-01
 145 T  14 SI    1.656860000000E-01  4.086160000000E-01 -3.266100000000E-01
 146 T  14 SI    4.326890000000E-01 -1.142470000000E-01 -8.127300000000E-02
 147 T  14 SI    4.539180000000E-01 -4.946600000000E-01 -2.117870000000E-01
 148 T  14 SI   -2.033780000000E-01 -4.371140000000E-01 -1.882340000000E-01

 T = ATOM BELONGING TO THE ASYMMETRIC UNIT

 ****   1 SYMMOPS - TRANSLATORS IN FRACTIONAL UNITS
  V INV                   ROTATION MATRICES                       TRANSLATOR
  1  1  1.00  0.00  0.00  0.00  1.00  0.00  0.00  0.00  1.00    0.00  0.00  0.00

 DIRECT LATTICE VECTORS CARTESIAN COMPONENTS (ANGSTROM)
          X                    Y                    Z
   0.108530000000E+02   0.664554585557E-15   0.000000000000E+00
   0.000000000000E+00   0.106395000000E+02   0.000000000000E+00
   0.129715201289E-14   0.129715201289E-14   0.211841000000E+02


 CARTESIAN COORDINATES - PRIMITIVE CELL
 *******************************************************************************
 *      ATOM          X(ANGSTROM)         Y(ANGSTROM)         Z(ANGSTROM)
 *******************************************************************************
   1     8 O    -5.283066752000E+00  3.535005793500E+00 -8.587674010300E+00
   2     8 O    -2.820043520000E+00  4.597902483000E+00 -9.629592784700E+00
   3     8 O     1.705874540000E+00  5.333368560000E-01 -8.049894447700E+00
   4     8 O    -5.002788027000E+00 -4.588869547500E+00 -9.181676174300E+00
   5     8 O     4.781831800000E-02 -3.402831285000E+00 -7.271887191100E+00
   6     8 O     3.564277142000E+00  3.342047821500E+00 -1.025232058830E+01
   7     8 O    -9.474669000000E-01  1.012497378000E+00 -7.304531889200E+00
   8     8 O     4.815150510000E-01  6.323374035000E-01 -1.052576495110E+01
   9     8 O     5.392215373000E+00 -2.100758635500E+00 -7.982084143600E+00
  10     8 O     2.215531420000E-01  4.394347569000E+00 -7.437695141800E+00
  11     8 O     2.437648918000E+00 -2.041390225500E+00 -7.828965468800E+00
  12     8 O    -3.511379620000E+00  4.771219938000E+00 -7.182998707500E+00
  13     8 O     1.453314377000E+00 -3.938413075500E+00 -9.432538286500E+00
  14     8 O    -4.884067060000E-01 -1.057034325000E+00 -8.839828352600E+00
  15     8 O    -3.199963638000E+00 -2.739405262500E+00 -9.534370255200E+00
  16     8 O     5.209440000000E+00 -2.150870680500E+00 -1.056177792110E+01
  17     8 O     4.117508817000E+00  1.308381873000E+00 -8.542107011200E+00
  18     8 O     2.803112840000E+00 -1.405190683500E+00 -4.578244139700E+00
  19     8 O     2.921909778000E+00  3.590501425500E+00 -7.793757494600E+00
  20     8 O     1.974334348000E+00  2.692431870000E+00 -3.002697886300E+00
  21     8 O     2.244498077000E+00 -4.690434214500E+00 -6.943576009300E+00
  22     8 O    -1.851803978000E+00  3.475265001000E+00 -5.521847506000E-01
  23     8 O     3.840366609000E+00  1.003336768500E+00 -4.029258188200E+00
  24     8 O    -3.463387654000E+00  2.180629362000E+00 -6.471001106500E+00
  25     8 O     1.504106417000E+00 -3.207521983500E+00 -2.280002314800E+00
  26     8 O    -1.747083381000E+00  1.321106715000E+00 -4.835186088600E+00
  27     8 O     5.317959147000E+00  5.312866243500E+00 -2.898874612200E+00
  28     8 O     1.546802119000E+00  5.309450964000E+00 -3.873322028100E+00
  29     8 O     6.209652480000E-01 -8.796844995000E-01 -6.257804324100E+00
  30     8 O    -7.619457180000E-01 -1.251524385000E+00  1.244565875000E-01
  31     8 O    -1.488673451000E+00 -4.333383234000E+00 -5.586374274600E+00
  32     8 O     5.396111600000E+00 -3.727719057000E+00 -4.872809050200E+00
  33     8 O    -1.864914402000E+00 -1.625247462000E+00 -6.098838837700E+00
  34     8 O     5.348738255000E+00 -4.480612635000E-01 -4.067559041000E-01
  35     8 O    -5.074569769000E+00 -3.899653377000E+00  7.470784706000E-01
  36     8 O    -5.300040844000E+00 -1.145480488500E+00 -4.614172373300E+00
  37     8 O    -4.892195957000E+00 -2.202706324500E+00 -2.334339531300E+00
  38     8 O    -1.231316262000E+00  1.495647712500E+00 -2.354951660600E+00
  39     8 O    -5.186887466000E+00  4.375409259000E+00 -4.851370741000E-01
  40     8 O    -3.287645025000E+00  2.567800767000E+00 -2.959058640300E+00
  41     8 O     6.642687180000E-01 -4.629246450000E-02 -3.743230470000E+00
  42     8 O     8.388934880000E-01  4.862996265000E-01 -1.071703619000E+00
  43     8 O     3.332164031000E+00 -4.994266416000E+00 -1.327120312700E+00
  44     8 O    -7.689241970000E-01 -4.340415943500E+00 -3.243794128400E+00
  45     8 O    -3.608589941000E+00  1.421394642000E+00 -5.777115911000E-01
  46     8 O     1.709434324000E+00  3.454294546500E+00 -5.554280363100E+00
  47     8 O    -3.946476390000E-01  3.438633202500E+00 -3.761766557500E+00
  48     8 O     3.885905797000E+00 -5.095256550000E-02 -6.462739307500E+00
  49     8 O    -5.143529731000E+00  4.125189498000E+00 -5.278781142600E+00
  50     8 O    -2.507173236000E+00  4.079663077500E+00 -4.813069888200E+00
  51     8 O    -3.164311533000E+00 -3.261240819000E+00 -3.974031239500E+00
  52     8 O    -2.741011974000E+00  5.203141080000E+00 -2.576855108100E+00
  53     8 O     5.011915400000E-01 -2.718519924000E+00 -4.685202660600E+00
  54     8 O    -7.328922370000E-01 -4.804851397500E+00 -7.014479192000E-01
  55     8 O     3.524772222000E+00 -2.295684915000E+00 -7.936411224000E-01
  56     8 O     4.420372635000E+00  3.038726316000E+00 -2.385816894300E+00
  57    14 SI    1.956036190000E-01  1.362919950000E-01  4.435315017000E-01
  58    14 SI    3.196317030000E+00  3.060484093500E+00  4.509247526000E-01
  59    14 SI    1.843664228000E+00  4.425659617500E+00  1.878436515200E+00
  60    14 SI    4.670566844000E+00  1.853549853000E+00  1.899684167500E+00
  61    14 SI    5.494222720000E-01  3.191967034500E+00  3.462244567600E+00
  62    14 SI    3.202427269000E+00  5.679790680000E-01  3.255424199300E+00
  63    14 SI    1.924790403000E+00  1.863636099000E+00  4.798516411500E+00
  64    14 SI    4.461212474000E+00  4.454258593500E+00  4.778158491400E+00
  65    14 SI    4.292361500000E-02 -4.964869477500E+00  8.126432601000E-01
  66    14 SI    2.805066380000E+00 -2.655055306500E+00  8.356703768000E-01
  67    14 SI    1.848276753000E+00 -7.881741600000E-01  1.861912917200E+00
  68    14 SI    4.702583194000E+00 -3.391415101500E+00  1.953279940500E+00
  69    14 SI    5.236789560000E-01 -2.022313602000E+00  3.402505405600E+00
  70    14 SI    3.286972139000E+00 -4.863177136500E+00  3.214030467900E+00
  71    14 SI    1.920416644000E+00 -3.485489560500E+00  4.625611787300E+00
  72    14 SI    4.497960732000E+00 -7.593304755000E-01  4.721152078300E+00
  73    14 SI   -4.598448659000E+00  4.155150330000E-01  6.477674098000E-01
  74    14 SI   -1.402869633000E+00  3.748795906500E+00  1.272380598300E+00
  75    14 SI   -3.416350752000E+00  4.373313277500E+00  2.288475954800E+00
  76    14 SI   -6.584515100000E-01  1.701330526500E+00  2.061700164300E+00
  77    14 SI   -4.951171159000E+00  3.093562299000E+00  3.476162521300E+00
  78    14 SI   -2.211939077000E+00  4.816288860000E-01  3.378037770100E+00
  79    14 SI   -3.538229942000E+00  1.824238030500E+00  4.811968315000E+00
  80    14 SI   -8.767813110000E-01  4.521542791500E+00  4.810125298300E+00
  81    14 SI   -4.194695353000E+00 -5.251433770500E+00  3.875631095000E-01
  82    14 SI   -1.343623106000E+00 -1.857603502500E+00 -1.337860651400E+00
  83    14 SI   -3.260208641000E+00 -1.080345469500E+00  1.982556366700E+00
  84    14 SI   -9.568547450000E-01 -3.357900676500E+00  2.223864449800E+00
  85    14 SI   -4.896211567000E+00 -2.028112129500E+00  3.380939991800E+00
  86    14 SI   -2.273182556000E+00 -4.702095106500E+00  3.567550728700E+00
  87    14 SI   -3.638652751000E+00 -3.346718562000E+00  4.855099142600E+00
  88    14 SI   -8.665903440000E-01 -7.674271350000E-01  4.854145858100E+00
  89    14 SI    5.240588110000E-01  5.835765750000E-01  6.183935367400E+00
  90    14 SI    3.167426344000E+00  3.159463362000E+00  6.309938394200E+00
  91    14 SI    5.461121070000E-01 -4.756228882500E+00  6.065304407400E+00
  92    14 SI    3.168511644000E+00 -2.126165761500E+00  6.104939858500E+00
  93    14 SI   -4.967092510000E+00  5.299215765000E-01  6.129047364300E+00
  94    14 SI   -2.226471244000E+00  3.213820567500E+00  6.199018446600E+00
  95    14 SI   -5.045527141000E+00 -4.754867026500E+00  6.057932340600E+00
  96    14 SI   -2.253267301000E+00 -2.102088573000E+00  6.281699988900E+00
  97    14 SI    1.721893568000E+00  4.553088909000E+00  7.615895791000E+00
  98    14 SI    4.568689733000E+00  1.790351223000E+00  7.652565468100E+00
  99    14 SI    2.795190150000E-01  3.397245547500E+00  9.142739798500E+00
 100    14 SI    3.367913813000E+00  2.564757870000E-01  9.092660586100E+00
 101    14 SI    1.559673777000E+00  1.571645661000E+00  9.867574964100E+00
 102    14 SI    4.366183606000E+00  4.200591634500E+00  9.771187309100E+00
 103    14 SI    1.853757518000E+00 -8.017288830000E-01  7.563486327600E+00
 104    14 SI    4.522369129000E+00 -3.437994832500E+00  7.514254479200E+00
 105    14 SI    5.035683470000E-01 -2.141529199500E+00  8.985596144700E+00
 106    14 SI    3.119944469000E+00 -4.681241686500E+00  8.915540326000E+00
 107    14 SI    2.096115861000E+00 -3.138046048500E+00  1.041414592820E+01
 108    14 SI    3.630849444000E+00 -1.327064835000E+00 -1.009634206000E+01
 109    14 SI   -3.667999263000E+00  4.621351941000E+00  7.421065623300E+00
 110    14 SI   -8.144850910000E-01  1.931356516500E+00  7.577870331500E+00
 111    14 SI   -4.695268272000E+00  3.087412668000E+00  8.859720222500E+00
 112    14 SI   -2.167973574000E+00  5.915774790000E-01  8.903613677700E+00
 113    14 SI   -3.294775446000E+00  1.962423856500E+00  1.039020789520E+01
 114    14 SI   -2.020361921000E+00  3.947531127000E+00  1.019082314600E+01
 115    14 SI   -3.648442157000E+00 -6.899077380000E-01  7.621869707200E+00
 116    14 SI   -7.751972310000E-01 -3.486521592000E+00  7.523999165200E+00
 117    14 SI   -4.878814208000E+00 -2.236295226000E+00  8.954730911000E+00
 118    14 SI   -2.241654591000E+00 -4.780678453500E+00  8.815318348900E+00
 119    14 SI   -2.753720837000E+00 -2.709965766000E+00  9.870286528900E+00
 120    14 SI   -6.901965350000E-01 -6.084942840000E-01  1.031241988000E+01
 121    14 SI    4.059662327000E+00  2.906339017500E+00 -8.721854099700E+00
 122    14 SI    2.473073110000E-01 -7.399772250000E-02 -7.655001639600E+00
 123    14 SI    1.674053544000E+00 -3.433866706500E+00 -7.869405915700E+00
 124    14 SI   -4.147126654000E+00  4.715564713500E+00 -8.689569531300E+00
 125    14 SI    3.292507169000E+00 -1.037989620000E-01 -7.999158528200E+00
 126    14 SI   -4.862708356000E+00 -2.933384626500E+00 -9.135706677300E+00
 127    14 SI   -2.384838220000E+00 -1.009709829000E+00 -9.059528653700E+00
 128    14 SI    3.316438034000E+00  1.747080376500E+00 -2.596746978000E+00
 129    14 SI   -2.247699712000E+00  5.197342552500E+00 -1.039397866500E+00
 130    14 SI    4.102238646000E+00 -3.864372795000E-01 -4.896429321700E+00
 131    14 SI   -2.322911002000E+00  9.065917950000E-01 -6.337159962700E+00
 132    14 SI    7.472941680000E-01 -3.975044874000E+00 -3.477687776500E+00
 133    14 SI   -8.534690670000E-01 -2.815903267500E+00 -5.961841263000E+00
 134    14 SI   -4.694649651000E+00 -2.582781183000E+00 -3.948250189800E+00
 135    14 SI    3.194895287000E+00 -3.452911411500E+00 -2.084833201500E+00
 136    14 SI   -1.826451370000E+00  2.599080897000E+00 -3.804177125700E+00
 137    14 SI   -1.829794094000E+00  1.694914908000E+00 -6.563469703000E-01
 138    14 SI    4.535588083000E+00  4.547811717000E+00 -1.663396716100E+00
 139    14 SI    1.196326190000E+00  3.674436441000E+00 -4.028114246800E+00
 140    14 SI    1.239108716000E+00 -1.138245628500E+00 -4.803070993000E+00
 141    14 SI   -4.431985345000E+00  1.600085044500E+00 -2.272015909100E+00
 142    14 SI   -3.703531985000E+00  3.721399194000E+00 -5.934344301200E+00
 143    14 SI   -9.970325510000E-01 -5.134377991500E+00 -7.651802840500E+00
 144    14 SI   -1.821024870000E-01  7.455097650000E-02 -2.332115200800E+00
 145    14 SI    1.798190158000E+00  4.347469932000E+00 -6.918938901000E+00
 146    14 SI    4.695973717000E+00 -1.215530956500E+00 -1.721695359300E+00
 147    14 SI    4.926372054000E+00 -5.262935070000E+00 -4.486516986700E+00
 148    14 SI   -2.207261434000E+00 -4.650674403000E+00 -3.987567879400E+00

 *******************************************************************************
 LOCAL ATOMIC FUNCTIONS BASIS SET
 *******************************************************************************
   ATOM  X(AU)  Y(AU)  Z(AU)    NO. TYPE  EXPONENT  S COEF   P COEF   D/F/G COEF
 *******************************************************************************
   1 O  -9.984  6.680-16.228
                                  1 S  
                                         8.020E+03 1.080E-03 0.000E+00 0.000E+00
                                         1.338E+03 8.040E-03 0.000E+00 0.000E+00
                                         2.554E+02 5.324E-02 0.000E+00 0.000E+00
                                         6.922E+01 1.681E-01 0.000E+00 0.000E+00
                                         2.390E+01 3.581E-01 0.000E+00 0.000E+00
                                         9.264E+00 3.855E-01 0.000E+00 0.000E+00
                                         3.851E+00 1.468E-01 0.000E+00 0.000E+00
                                         1.212E+00 7.280E-02 0.000E+00 0.000E+00
                             2-   5 SP 
                                         4.943E+01-8.830E-03 9.580E-03 0.000E+00
                                         1.047E+01-9.150E-02 6.960E-02 0.000E+00
                                         3.235E+00-4.020E-02 2.065E-01 0.000E+00
                                         1.217E+00 3.790E-01 3.470E-01 0.000E+00
                             6-   9 SP 
                                         4.763E-01 1.000E+00 1.000E+00 0.000E+00
                            10-  13 SP 
                                         1.900E-01 1.000E+00 1.000E+00 0.000E+00
   2 O  -5.329  8.689-18.197
   3 O   3.224  1.008-15.212
   4 O  -9.454 -8.672-17.351
   5 O   0.090 -6.430-13.742
   6 O   6.736  6.316-19.374
   7 O  -1.790  1.913-13.804
   8 O   0.910  1.195-19.891
   9 O  10.190 -3.970-15.084
  10 O   0.419  8.304-14.055
  11 O   4.606 -3.858-14.795
  12 O  -6.636  9.016-13.574
  13 O   2.746 -7.443-17.825
  14 O  -0.923 -1.998-16.705
  15 O  -6.047 -5.177-18.017
  16 O   9.844 -4.065-19.959
  17 O   7.781  2.472-16.142
  18 O   5.297 -2.655 -8.652
  19 O   5.522  6.785-14.728
  20 O   3.731  5.088 -5.674
  21 O   4.241 -8.864-13.121
  22 O  -3.499  6.567 -1.043
  23 O   7.257  1.896 -7.614
  24 O  -6.545  4.121-12.228
  25 O   2.842 -6.061 -4.309
  26 O  -3.302  2.497 -9.137
  27 O  10.049 10.040 -5.478
  28 O   2.923 10.033 -7.320
  29 O   1.173 -1.662-11.826
  30 O  -1.440 -2.365  0.235
  31 O  -2.813 -8.189-10.557
  32 O  10.197 -7.044 -9.208
  33 O  -3.524 -3.071-11.525
  34 O  10.108 -0.847 -0.769
  35 O  -9.590 -7.369  1.412
  36 O -10.016 -2.165 -8.720
  37 O  -9.245 -4.163 -4.411
  38 O  -2.327  2.826 -4.450
  39 O  -9.802  8.268 -0.917
  40 O  -6.213  4.852 -5.592
  41 O   1.255 -0.087 -7.074
  42 O   1.585  0.919 -2.025
  43 O   6.297 -9.438 -2.508
  44 O  -1.453 -8.202 -6.130
  45 O  -6.819  2.686 -1.092
  46 O   3.230  6.528-10.496
  47 O  -0.746  6.498 -7.109
  48 O   7.343 -0.096-12.213
  49 O  -9.720  7.795 -9.975
  50 O  -4.738  7.709 -9.095
  51 O  -5.980 -6.163 -7.510
  52 O  -5.180  9.833 -4.870
  53 O   0.947 -5.137 -8.854
  54 O  -1.385 -9.080 -1.326
  55 O   6.661 -4.338 -1.500
  56 O   8.353  5.742 -4.509
  57 SI  0.370  0.258  0.838
                                729 S  
                                         8.765E+04 2.370E-04 0.000E+00 0.000E+00
                                         1.285E+04 1.920E-03 0.000E+00 0.000E+00
                                         2.786E+03 1.090E-02 0.000E+00 0.000E+00
                                         7.280E+02 4.960E-02 0.000E+00 0.000E+00
                                         2.195E+02 1.668E-01 0.000E+00 0.000E+00
                                         7.590E+01 3.630E-01 0.000E+00 0.000E+00
                                         2.946E+01 4.051E-01 0.000E+00 0.000E+00
                                         1.199E+01 1.504E-01 0.000E+00 0.000E+00
                           730- 733 SP 
                                         1.660E+02-8.840E-03 9.090E-03 0.000E+00
                                         3.937E+01-8.590E-02 6.010E-02 0.000E+00
                                         1.271E+01-7.120E-02 1.952E-01 0.000E+00
                                         4.718E+00 4.147E-01 3.384E-01 0.000E+00
                                         1.848E+00 6.168E-01 3.006E-01 0.000E+00
                                         7.365E-01 1.154E-01 6.480E-02 0.000E+00
                           734- 737 SP 
                                         4.175E+00-1.990E-02-8.700E-03 0.000E+00
                                         1.447E+00-1.864E-01-4.380E-03 0.000E+00
                                         5.023E-01 9.670E-02 2.207E-01 0.000E+00
                           738- 741 SP 
                                         3.220E-01 1.000E+00 1.000E+00 0.000E+00
                           742- 745 SP 
                                         1.300E-01 1.000E+00 1.000E+00 0.000E+00
                           746- 750 D  
                                         6.000E-01 0.000E+00 0.000E+00 1.000E+00
  58 SI  6.040  5.783  0.852
  59 SI  3.484  8.363  3.550
  60 SI  8.826  3.503  3.590
  61 SI  1.038  6.032  6.543
  62 SI  6.052  1.073  6.152
  63 SI  3.637  3.522  9.068
  64 SI  8.430  8.417  9.029
  65 SI  0.081 -9.382  1.536
  66 SI  5.301 -5.017  1.579
  67 SI  3.493 -1.489  3.519
  68 SI  8.887 -6.409  3.691
  69 SI  0.990 -3.822  6.430
  70 SI  6.211 -9.190  6.074
  71 SI  3.629 -6.587  8.741
  72 SI  8.500 -1.435  8.922
  73 SI -8.690  0.785  1.224
  74 SI -2.651  7.084  2.404
  75 SI -6.456  8.264  4.325
  76 SI -1.244  3.215  3.896
  77 SI -9.356  5.846  6.569
  78 SI -4.180  0.910  6.384
  79 SI -6.686  3.447  9.093
  80 SI -1.657  8.544  9.090
  81 SI -7.927 -9.924  0.732
  82 SI -2.539 -3.510 -2.528
  83 SI -6.161 -2.042  3.746
  84 SI -1.808 -6.346  4.202
  85 SI -9.252 -3.833  6.389
  86 SI -4.296 -8.886  6.742
  87 SI -6.876 -6.324  9.175
  88 SI -1.638 -1.450  9.173
  89 SI  0.990  1.103 11.686
  90 SI  5.986  5.971 11.924
  91 SI  1.032 -8.988 11.462
  92 SI  5.988 -4.018 11.537
  93 SI -9.386  1.001 11.582
  94 SI -4.207  6.073 11.714
  95 SI -9.535 -8.985 11.448
  96 SI -4.258 -3.972 11.871
  97 SI  3.254  8.604 14.392
  98 SI  8.634  3.383 14.461
  99 SI  0.528  6.420 17.277
 100 SI  6.364  0.485 17.183
 101 SI  2.947  2.970 18.647
 102 SI  8.251  7.938 18.465
 103 SI  3.503 -1.515 14.293
 104 SI  8.546 -6.497 14.200
 105 SI  0.952 -4.047 16.980
 106 SI  5.896 -8.846 16.848
 107 SI  3.961 -5.930 19.680
 108 SI  6.861 -2.508-19.079
 109 SI -6.932  8.733 14.024
 110 SI -1.539  3.650 14.320
 111 SI -8.873  5.834 16.742
 112 SI -4.097  1.118 16.825
 113 SI -6.226  3.708 19.635
 114 SI -3.818  7.460 19.258
 115 SI -6.895 -1.304 14.403
 116 SI -1.465 -6.589 14.218
 117 SI -9.220 -4.226 16.922
 118 SI -4.236 -9.034 16.659
 119 SI -5.204 -5.121 18.652
 120 SI -1.304 -1.150 19.488
 121 SI  7.672  5.492-16.482
 122 SI  0.467 -0.140-14.466
 123 SI  3.164 -6.489-14.871
 124 SI -7.837  8.911-16.421
 125 SI  6.222 -0.196-15.116
 126 SI -9.189 -5.543-17.264
 127 SI -4.507 -1.908-17.120
 128 SI  6.267  3.302 -4.907
 129 SI -4.248  9.822 -1.964
 130 SI  7.752 -0.730 -9.253
 131 SI -4.390  1.713-11.975
 132 SI  1.412 -7.512 -6.572
 133 SI -1.613 -5.321-11.266
 134 SI -8.872 -4.881 -7.461
 135 SI  6.037 -6.525 -3.940
 136 SI -3.451  4.912 -7.189
 137 SI -3.458  3.203 -1.240
 138 SI  8.571  8.594 -3.143
 139 SI  2.261  6.944 -7.612
 140 SI  2.342 -2.151 -9.076
 141 SI -8.375  3.024 -4.293
 142 SI -6.999  7.032-11.214
 143 SI -1.884 -9.703-14.460
 144 SI -0.344  0.141 -4.407
 145 SI  3.398  8.216-13.075
 146 SI  8.874 -2.297 -3.254
 147 SI  9.309 -9.946 -8.478
 148 SI -4.171 -8.789 -7.535
 INFORMATION **** TOLINTEG **** COULOMB AND EXCHANGE SERIES TOLERANCES MODIFIED
 INFORMATION **** READM2 **** FULL DIRECT SCF (MONO AND BIEL INT) SELECTED
 INFORMATION **** SMEAR **** FERMI SMEARING ACTIVE
 FERMI SMEARING - TEMPERATURE SMEARING OF FERMI SURFACE  0.1000E-12
 INFORMATION **** MAXCYCLE **** MAX NUMBER OF SCF CYCLES SET TO         250

 MODIFIED BROYDEN MIXING OF THE FOCK MATRIX
 WO PARAMETER(D.D. Johnson, PRB38, 12807,(1988)             1.0000E-04
 % OF FOCK/KS MATRICES MIXING WHEN BROYDEN METHOD IS ON             90
 NUMBER OF SCF ITERATIONS AFTER WHICH BROYDEN METHOD IS ACTIVE      40
 INFORMATION **** TOLDEE **** SCF TOL ON TOTAL ENERGY SET TO           7
 *******************************************************************************
 N. OF ATOMS PER CELL      148  COULOMB OVERLAP TOL         (T1) 10** -8
 NUMBER OF SHELLS          776  COULOMB PENETRATION TOL     (T2) 10** -8
 NUMBER OF AO             2752  EXCHANGE OVERLAP TOL        (T3) 10** -8
 N. OF ELECTRONS PER CELL 1736  EXCHANGE PSEUDO OVP (F(G))  (T4) 10** -8
 CORE ELECTRONS PER CELL  1032  EXCHANGE PSEUDO OVP (P(G))  (T5) 10**-16
 N. OF SYMMETRY OPERATORS    1  POLE ORDER IN MONO ZONE                4
 *******************************************************************************
 TYPE OF CALCULATION :  UNRESTRICTED OPEN SHELL
 KOHN-SHAM HAMILTONIAN

 (EXCHANGE)[CORRELATION] FUNCTIONAL:(BECKE)[LEE-YANG-PARR]

 NON-LOCAL WEIGHTING FACTOR (EXCHANGE) =           0.9000
 NON-LOCAL WEIGHTING FACTOR [CORRELATION] =        0.8100

 HYBRID EXCHANGE - PERCENTAGE OF FOCK EXCHANGE     5.0000

 SPIN POLARIZED DFT SELECTED

 CAPPA:IS1  2;IS2  2;IS3  2; K PTS MONK NET    8; SYMMOPS: K SPACE  2;G SPACE  1

 *******************************************************************************
 MAX NUMBER OF SCF CYCLES     250  CONVERGENCE ON DELTAP        10**-17
 WEIGHT OF F(I) IN F(I+1)      95% CONVERGENCE ON ENERGY        10**- 7
 SHRINK. FACT.(MONKH.)    2  2  2  NUMBER OF K POINTS IN THE IBZ      8
 SHRINKING FACTOR(GILAT NET)    2  NUMBER OF K POINTS(GILAT NET)      8
 *******************************************************************************
 *** K POINTS COORDINATES (OBLIQUE COORDINATES IN UNITS OF IS =  2)
   1-R(  0  0  0)   2-R(  1  0  0)   3-R(  0  1  0)   4-R(  1  1  0)
   5-R(  0  0  1)   6-R(  1  0  1)   7-R(  0  1  1)   8-R(  1  1  1)

 DIRECT LATTICE VECTORS COMPON. (A.U.)     RECIP. LATTICE VECTORS COMPON. (A.U.) 
        X            Y            Z              X            Y            Z
   20.5091977    0.0000000    0.0000000      0.3063594    0.0000000    0.0000000
    0.0000000   20.1057412    0.0000000      0.0000000    0.3125070    0.0000000
    0.0000000    0.0000000   40.0321474      0.0000000    0.0000000    0.1569535

 DISK SPACE FOR EIGENVECTORS (FTN 10)   60588032 REALS

 SYMMETRY ADAPTION OF THE BLOCH FUNCTIONS DISABLED
 TTTTTTTTTTTTTTTTTTTTTTTTTTTTTT gordsh1     TELAPSE        2.80 TCPU        0.60

 DIMENSIONS  P(G)= 6420422 F(G)= 1144769 P(G),F(G) (IRR) 3218667
 MAX G-VECTOR INDEX FOR 1- AND 2-ELECTRON INTEGRALS  43

 TTTTTTTTTTTTTTTTTTTTTTTTTTTTTT INPUT       TELAPSE        3.10 TCPU        0.90

 NEIGHBORS OF THE NON-EQUIVALENT ATOMS

 N = NUMBER OF NEIGHBORS AT DISTANCE R
    ATOM  N     R/ANG      R/AU   NEIGHBORS (ATOM LABELS AND CELL INDICES)
   1 O    1     1.6414     3.1018 121 SI  -1 0 0
   1 O    1     1.6415     3.1020 124 SI   0 0 0
   1 O    1     2.5769     4.8696  12 O    0 0 0
   1 O    1     2.6000     4.9132   4 O    0 1 0
   1 O    1     2.6136     4.9390   6 O   -1 0 0
   1 O    1     2.6588     5.0245  17 O   -1 0 0

   2 O    1     1.6305     3.0813 124 SI   0 0 0
   2 O    1     1.7094     3.2303 114 SI   0 0-1
   2 O    1     2.5483     4.8156  12 O    0 0 0
   2 O    1     2.6600     5.0266   4 O    0 1 0
   2 O    1     2.8387     5.3643 143 SI   0 1 0
   2 O    1     2.8778     5.4383   1 O    0 0 0

   3 O    1     1.6286     3.0775 122 SI   0 0 0
   3 O    1     1.7105     3.2324 125 SI   0 0 0
   3 O    1     2.5269     4.7752  29 O    0 0 0
   3 O    1     2.5805     4.8764  17 O    0 0 0
   3 O    1     2.6858     5.0754  11 O    0 0 0
   3 O    1     2.7592     5.2141  48 O    0 0 0

   4 O    1     1.6603     3.1376 124 SI   0-1 0
   4 O    1     1.6620     3.1408 126 SI   0 0 0
   4 O    1     2.6000     4.9132   1 O    0-1 0
   4 O    1     2.6067     4.9260  15 O    0 0 0
   4 O    1     2.6600     5.0266   2 O    0-1 0
   4 O    1     2.7999     5.2911   9 O   -1 0 0

   5 O    1     1.6950     3.2031 133 SI   0 0 0
   5 O    1     1.7328     3.2745 123 SI   0 0 0
   5 O    1     2.0577     3.8886 143 SI   0 0 0
   5 O    1     2.4633     4.6549  31 O    0 0 0
   5 O    1     2.5673     4.8515  21 O    0 0 0
   5 O    1     2.6326     4.9749  13 O    0 0 0

   6 O    1     1.6514     3.1207 102 SI   0 0-1
   6 O    1     1.6666     3.1494 121 SI   0 0 0
   6 O    1     2.5532     4.8249  19 O    0 0 0
   6 O    1     2.6136     4.9390   1 O    1 0 0
   6 O    1     2.7142     5.1290  17 O    0 0 0
   6 O    1     2.8784     5.4394 101 SI   0 0-1

   7 O    1     1.6525     3.1228 122 SI   0 0 0
   7 O    1     1.6849     3.1840 131 SI   0 0 0
   7 O    1     2.6139     4.9395  26 O    0 0 0
   7 O    1     2.6174     4.9462  14 O    0 0 0
   7 O    1     2.6713     5.0481  29 O    0 0 0
   7 O    1     2.7974     5.2863   3 O    0 0 0

   8 O    1     1.6340     3.0879 101 SI   0 0-1
   8 O    1     1.7413     3.2906 120 SI   0 0-1
   8 O    1     2.5763     4.8684  14 O    0 0 0
   8 O    1     2.7638     5.2229   3 O    0 0 0
   8 O    1     2.9656     5.6043 122 SI   0 0 0
   8 O    1     3.1595     5.9706  99 SI   0 0-1

   9 O    1     1.5433     2.9164 126 SI   1 0 0
   9 O    1     2.5866     4.8881  16 O    0 0 0
   9 O    1     2.7999     5.2911   4 O    1 0 0
   9 O    1     2.8158     5.3211  15 O    1 0 0
   9 O    1     2.8585     5.4018 108 SI   0 0 0
   9 O    1     2.8977     5.4759 125 SI   0 0 0

  10 O    1     1.6604     3.1378 145 SI   0 0 0
  10 O    1     1.6627     3.1421 143 SI   0 1 0
  10 O    1     2.5777     4.8712  46 O    0 0 0
  10 O    1     2.5988     4.9110  21 O    0 1 0
  10 O    1     2.8399     5.3666  19 O    0 0 0
  10 O    1     2.8524     5.3903   5 O    0 1 0

  11 O    1     1.5886     3.0021 123 SI   0 0 0
  11 O    1     2.1246     4.0149 125 SI   0 0 0
  11 O    1     2.6599     5.0265 108 SI   0 0 0
  11 O    1     2.6680     5.0419  29 O    0 0 0
  11 O    1     2.6719     5.0492  13 O    0 0 0
  11 O    1     2.6858     5.0754   3 O    0 0 0

  12 O    1     1.6362     3.0919 124 SI   0 0 0
  12 O    1     1.6426     3.1041 142 SI   0 0 0
  12 O    1     2.5483     4.8156   2 O    0 0 0
  12 O    1     2.5769     4.8696   1 O    0 0 0
  12 O    1     2.5898     4.8941  49 O    0 0 0
  12 O    1     2.6609     5.0284 143 SI   0 1 0

  13 O    1     1.6573     3.1319 123 SI   0 0 0
  13 O    1     1.6860     3.1860 107 SI   0 0-1
  13 O    1     2.6326     4.9749   5 O    0 0 0
  13 O    1     2.6719     5.0492  11 O    0 0 0
  13 O    1     2.7178     5.1359  21 O    0 0 0
  13 O    1     3.2566     6.1541 143 SI   0 0 0

  14 O    1     1.7063     3.2244 122 SI   0 0 0
  14 O    1     1.9097     3.6088 127 SI   0 0 0
  14 O    1     2.0905     3.9505 120 SI   0 0-1
  14 O    1     2.5763     4.8684   8 O    0 0 0
  14 O    1     2.6174     4.9462   7 O    0 0 0
  14 O    1     2.8158     5.3212  29 O    0 0 0

  15 O    1     1.7208     3.2519 126 SI   0 0 0
  15 O    1     1.8348     3.4672 119 SI   0 0-1
  15 O    1     1.9702     3.7232 127 SI   0 0 0
  15 O    1     2.6067     4.9260   4 O    0 0 0
  15 O    1     2.7153     5.1313  16 O   -1 0 0
  15 O    1     2.8158     5.3211   9 O   -1 0 0

  16 O    1     1.8044     3.4098 126 SI   1 0 0
  16 O    1     1.8366     3.4706 117 SI   1 0-1
  16 O    1     1.8404     3.4779 108 SI   0 0 0
  16 O    1     2.5866     4.8881   9 O    0 0 0
  16 O    1     2.7153     5.1313  15 O    1 0 0
  16 O    1     2.8739     5.4308   4 O    1 0 0

  17 O    1     1.6091     3.0407 121 SI   0 0 0
  17 O    1     1.7233     3.2565 125 SI   0 0 0
  17 O    1     2.4950     4.7149  48 O    0 0 0
  17 O    1     2.5805     4.8764   3 O    0 0 0
  17 O    1     2.6588     5.0245   1 O    1 0 0
  17 O    1     2.6828     5.0698  19 O    0 0 0

  18 O    1     1.6025     3.0282 140 SI   0 0 0
  18 O    1     1.6813     3.1772 130 SI   0 0 0
  18 O    1     2.5608     4.8392  48 O    0 0 0
  18 O    1     2.6524     5.0123  53 O    0 0 0
  18 O    1     2.6681     5.0419  41 O    0 0 0
  18 O    1     2.6792     5.0630  23 O    0 0 0

  19 O    1     1.6128     3.0477 145 SI   0 0 0
  19 O    1     1.6199     3.0611 121 SI   0 0 0
  19 O    1     2.5503     4.8193  46 O    0 0 0
  19 O    1     2.5532     4.8249   6 O    0 0 0
  19 O    1     2.5970     4.9077  21 O    0 1 0
  19 O    1     2.6828     5.0698  17 O    0 0 0

  20 O    1     1.6190     3.0594 139 SI   0 0 0
  20 O    1     1.6911     3.1957 128 SI   0 0 0
  20 O    1     2.5463     4.8118  56 O    0 0 0
  20 O    1     2.5971     4.9079  47 O    0 0 0
  20 O    1     2.6760     5.0570  46 O    0 0 0
  20 O    1     2.7183     5.1368  23 O    0 0 0

  21 O    1     1.6618     3.1403 123 SI   0 0 0
  21 O    1     1.6628     3.1422 145 SI   0-1 0
  21 O    1     2.5673     4.8515   5 O    0 0 0
  21 O    1     2.5970     4.9077  19 O    0-1 0
  21 O    1     2.5988     4.9110  10 O    0-1 0
  21 O    1     2.7178     5.1359  13 O    0 0 0

  22 O    1     1.7835     3.3704 137 SI   0 0 0
  22 O    1     1.8329     3.4638 129 SI   0 0 0
  22 O    1     1.8988     3.5882  74 SI   0 0 0
  22 O    1     2.6155     4.9426  54 O    0 1 0
  22 O    1     2.7028     5.1076  45 O    0 0 0
  22 O    1     2.7484     5.1938  38 O    0 0 0

  23 O    1     1.6589     3.1349 130 SI   0 0 0
  23 O    1     1.6970     3.2068 128 SI   0 0 0
  23 O    1     2.6524     5.0124  48 O    0 0 0
  23 O    1     2.6792     5.0630  18 O    0 0 0
  23 O    1     2.6796     5.0637  56 O    0 0 0
  23 O    1     2.7183     5.1368  20 O    0 0 0

  24 O    1     1.6491     3.1164 142 SI   0 0 0
  24 O    1     1.7152     3.2412 131 SI   0 0 0
  24 O    1     2.5220     4.7658  26 O    0 0 0
  24 O    1     2.6871     5.0778  12 O    0 0 0
  24 O    1     2.6962     5.0951  50 O    0 0 0
  24 O    1     2.8329     5.3535  49 O    0 0 0

  25 O    1     1.6113     3.0449 132 SI   0 0 0
  25 O    1     1.7196     3.2496 135 SI   0 0 0
  25 O    1     2.6514     5.0104  53 O    0 0 0
  25 O    1     2.6544     5.0160  28 O    0-1 0
  25 O    1     2.6690     5.0438  55 O    0 0 0
  25 O    1     2.7164     5.1333  44 O    0 0 0

  26 O    1     1.6439     3.1066 136 SI   0 0 0
  26 O    1     1.6611     3.1391 131 SI   0 0 0
  26 O    1     2.5220     4.7658  24 O    0 0 0
  26 O    1     2.5393     4.7986  38 O    0 0 0
  26 O    1     2.6139     4.9395   7 O    0 0 0
  26 O    1     2.7290     5.1571  40 O    0 0 0

  27 O    1     1.6365     3.0925 147 SI   0 1 0
  27 O    1     1.6504     3.1188 138 SI   0 0 0
  27 O    1     2.4981     4.7208  56 O    0 0 0
  27 O    1     2.5415     4.8027  32 O    0 1 0
  27 O    1     2.5543     4.8269  43 O    0 1 0
  27 O    1     2.6127     4.9373  39 O    1 0 0

  28 O    1     1.6223     3.0657 132 SI   0 1 0
  28 O    1     1.6793     3.1734 139 SI   0 0 0
  28 O    1     2.5087     4.7408  46 O    0 0 0
  28 O    1     2.5958     4.9054  44 O    0 1 0
  28 O    1     2.6544     5.0160  25 O    0 1 0
  28 O    1     2.6984     5.0993  47 O    0 0 0

  29 O    1     1.6016     3.0266 140 SI   0 0 0
  29 O    1     1.6556     3.1286 122 SI   0 0 0
  29 O    1     2.4225     4.5780  53 O    0 0 0
  29 O    1     2.4516     4.6329 133 SI   0 0 0
  29 O    1     2.5269     4.7752   3 O    0 0 0
  29 O    1     2.6001     4.9136  33 O    0 0 0

  30 O    1     1.6864     3.1869  82 SI   0 0 0
  30 O    1     1.7160     3.2428  57 SI   0 0 0
  30 O    1     2.6483     5.0046  42 O    0 0 0
  30 O    1     2.8512     5.3880 144 SI   0 0 0
  30 O    1     2.9803     5.6320  84 SI   0 0 0
  30 O    1     3.1182     5.8925  83 SI   0 0 0

  31 O    1     1.6874     3.1887 133 SI   0 0 0
  31 O    1     1.7814     3.3663 148 SI   0 0 0
  31 O    1     2.2692     4.2882 143 SI   0 0 0
  31 O    1     2.4507     4.6311  44 O    0 0 0
  31 O    1     2.4633     4.6549   5 O    0 0 0
  31 O    1     2.5606     4.8389  51 O    0 0 0

  32 O    1     1.6513     3.1205 147 SI   0 0 0
  32 O    1     1.6573     3.1319 134 SI   1 0 0
  32 O    1     2.5063     4.7361  51 O    1 0 0
  32 O    1     2.5415     4.8027  27 O    0-1 0
  32 O    1     2.5999     4.9131  36 O    1 0 0
  32 O    1     2.8334     5.3543  49 O    1-1 0

  33 O    1     1.5683     2.9636 133 SI   0 0 0
  33 O    1     2.5839     4.8829 131 SI   0 0 0
  33 O    1     2.6001     4.9136  29 O    0 0 0
  33 O    1     2.7818     5.2568  31 O    0 0 0
  33 O    1     2.8626     5.4095   5 O    0 0 0
  33 O    1     2.9651     5.6033  53 O    0 0 0

  34 O    1     1.6365     3.0926  73 SI   1 0 0
  34 O    1     1.6566     3.1304 146 SI   0 0 0
  34 O    1     2.6249     4.9604  55 O    0 0 0
  34 O    1     2.6679     5.0416  45 O    1 0 0
  34 O    1     2.6775     5.0597  37 O    1 0 0
  34 O    1     2.9705     5.6134 141 SI   1 0 0

  35 O    1     1.6525     3.1228  81 SI   0 0 0
  35 O    1     1.6943     3.2018  68 SI  -1 0 0
  35 O    1     2.6686     5.0430  39 O    0-1 0
  35 O    1     3.1663     5.9835  55 O   -1 0 0
  35 O    1     3.2246     6.0935  66 SI  -1 0 0
  35 O    1     3.2360     6.1152  85 SI   0 0 0

  36 O    1     1.6614     3.1397 130 SI  -1 0 0
  36 O    1     1.6958     3.2046 134 SI   0 0 0
  36 O    1     2.5459     4.8111  37 O    0 0 0
  36 O    1     2.5999     4.9131  32 O   -1 0 0
  36 O    1     2.7192     5.1386  48 O   -1 0 0
  36 O    1     2.7623     5.2200  18 O   -1 0 0

  37 O    1     1.6698     3.1554 134 SI   0 0 0
  37 O    1     1.7175     3.2455 146 SI  -1 0 0
  37 O    1     2.5459     4.8111  36 O    0 0 0
  37 O    1     2.6067     4.9259  51 O    0 0 0
  37 O    1     2.6775     5.0597  34 O   -1 0 0
  37 O    1     2.8839     5.4497  55 O   -1 0 0

  38 O    1     1.7666     3.3384 144 SI   0 0 0
  38 O    1     1.8119     3.4241 137 SI   0 0 0
  38 O    1     1.9162     3.6212 136 SI   0 0 0
  38 O    1     2.3964     4.5286  40 O    0 0 0
  38 O    1     2.5393     4.7986  26 O    0 0 0
  38 O    1     2.5405     4.8009  47 O    0 0 0

  39 O    1     1.6420     3.1029 138 SI  -1 0 0
  39 O    1     1.6648     3.1460  81 SI   0 1 0
  39 O    1     2.6127     4.9373  27 O   -1 0 0
  39 O    1     2.6365     4.9823  56 O   -1 0 0
  39 O    1     2.6686     5.0430  35 O    0 1 0
  39 O    1     2.7872     5.2671  43 O   -1 1 0

  40 O    1     1.6486     3.1155 141 SI   0 0 0
  40 O    1     1.6883     3.1904 136 SI   0 0 0
  40 O    1     2.3964     4.5286  38 O    0 0 0
  40 O    1     2.5164     4.7553  50 O    0 0 0
  40 O    1     2.6623     5.0311  45 O    0 0 0
  40 O    1     2.7184     5.1371  52 O    0 0 0

  41 O    1     1.6267     3.0740 140 SI   0 0 0
  41 O    1     1.6499     3.1179 144 SI   0 0 0
  41 O    1     2.6494     5.0067  29 O    0 0 0
  41 O    1     2.6681     5.0419  18 O    0 0 0
  41 O    1     2.7297     5.1584  42 O    0 0 0
  41 O    1     2.8104     5.3108  38 O    0 0 0

  42 O    1     1.6735     3.1625 144 SI   0 0 0
  42 O    1     1.6829     3.1803  57 SI   0 0 0
  42 O    1     2.6365     4.9823  38 O    0 0 0
  42 O    1     2.6483     5.0046  30 O    0 0 0
  42 O    1     2.7297     5.1584  41 O    0 0 0
  42 O    1     2.9589     5.5915 137 SI   0 0 0

  43 O    1     1.6630     3.1427 138 SI   0-1 0
  43 O    1     1.7230     3.2560 135 SI   0 0 0
  43 O    1     2.5543     4.8269  27 O    0-1 0
  43 O    1     2.7280     5.1553  25 O    0 0 0
  43 O    1     2.7575     5.2110  55 O    0 0 0
  43 O    1     2.7872     5.2671  39 O    1-1 0

  44 O    1     1.5771     2.9802 132 SI   0 0 0
  44 O    1     1.6487     3.1156 148 SI   0 0 0
  44 O    1     2.3527     4.4459  52 O    0-1 0
  44 O    1     2.4507     4.6311  31 O    0 0 0
  44 O    1     2.5142     4.7512  53 O    0 0 0
  44 O    1     2.5847     4.8843  54 O    0 0 0

  45 O    1     1.8014     3.4042 137 SI   0 0 0
  45 O    1     1.8691     3.5320  73 SI   0 0 0
  45 O    1     1.8922     3.5758 141 SI   0 0 0
  45 O    1     2.6623     5.0311  40 O    0 0 0
  45 O    1     2.6679     5.0416  34 O   -1 0 0
  45 O    1     2.7028     5.1076  22 O    0 0 0

  46 O    1     1.6251     3.0710 139 SI   0 0 0
  46 O    1     1.6334     3.0866 145 SI   0 0 0
  46 O    1     2.5087     4.7408  28 O    0 0 0
  46 O    1     2.5503     4.8193  19 O    0 0 0
  46 O    1     2.5777     4.8712  10 O    0 0 0
  46 O    1     2.6760     5.0570  20 O    0 0 0

  47 O    1     1.6303     3.0807 139 SI   0 0 0
  47 O    1     1.6603     3.1376 136 SI   0 0 0
  47 O    1     2.4452     4.6207  50 O    0 0 0
  47 O    1     2.5405     4.8009  38 O    0 0 0
  47 O    1     2.5971     4.9079  20 O    0 0 0
  47 O    1     2.6984     5.0993  28 O    0 0 0

  48 O    1     1.6164     3.0545 130 SI   0 0 0
  48 O    1     1.6479     3.1140 125 SI   0 0 0
  48 O    1     2.4950     4.7149  17 O    0 0 0
  48 O    1     2.5608     4.8392  18 O    0 0 0
  48 O    1     2.6524     5.0124  23 O    0 0 0
  48 O    1     2.7192     5.1386  36 O    1 0 0

  49 O    1     1.6329     3.0858 142 SI   0 0 0
  49 O    1     1.6754     3.1660 147 SI  -1 1 0
  49 O    1     2.5898     4.8941  12 O    0 0 0
  49 O    1     2.6776     5.0599  50 O    0 0 0
  49 O    1     2.6885     5.0805  27 O   -1 0 0
  49 O    1     2.8329     5.3535  24 O    0 0 0

  50 O    1     1.6784     3.1716 142 SI   0 0 0
  50 O    1     1.9166     3.6219 136 SI   0 0 0
  50 O    1     2.1015     3.9713 148 SI   0 1 0
  50 O    1     2.4452     4.6207  47 O    0 0 0
  50 O    1     2.5135     4.7498  52 O    0 0 0
  50 O    1     2.5164     4.7553  40 O    0 0 0

  51 O    1     1.6742     3.1638 134 SI   0 0 0
  51 O    1     1.6872     3.1884 148 SI   0 0 0
  51 O    1     2.5063     4.7361  32 O   -1 0 0
  51 O    1     2.5606     4.8389  31 O    0 0 0
  51 O    1     2.6067     4.9259  37 O    0 0 0
  51 O    1     2.6196     4.9504  52 O    0-1 0

  52 O    1     1.6147     3.0513 129 SI   0 0 0
  52 O    1     1.7007     3.2138 148 SI   0 1 0
  52 O    1     2.3527     4.4459  44 O    0 1 0
  52 O    1     2.5135     4.7498  50 O    0 0 0
  52 O    1     2.6196     4.9504  51 O    0 1 0
  52 O    1     2.7184     5.1371  40 O    0 0 0

  53 O    1     1.7481     3.3033 140 SI   0 0 0
  53 O    1     1.7600     3.3259 132 SI   0 0 0
  53 O    1     1.8640     3.5224 133 SI   0 0 0
  53 O    1     2.4225     4.5780  29 O    0 0 0
  53 O    1     2.5142     4.7512  44 O    0 0 0
  53 O    1     2.6514     5.0104  25 O    0 0 0

  54 O    1     1.6778     3.1706 129 SI   0-1 0
  54 O    1     1.7088     3.2291  65 SI   0 0 0
  54 O    1     2.5847     4.8843  44 O    0 0 0
  54 O    1     2.6155     4.9426  22 O    0-1 0
[...]
  14.0132068  14.0690483  14.1235248  14.0259071  13.9628268  13.6524310
  14.0368881  14.0128119  13.6719297  14.0319589  13.8036577  13.5974925
  12.6581148  12.6448964  12.8916480  12.6614988  12.8600973  12.9211803
  13.3424752  13.0355218  13.0407619  12.7140822  12.9201896  12.7434190
  12.8290737  12.6941301  13.2064543  12.6492698  13.1217411  12.8886144
  12.7348556  12.6627478  13.1057382  12.8058432  13.0325674  13.2761412
  12.7194464  13.1136220  13.0835310  12.5886706
 SUMMED SPIN DENSITY           0.00000000
 TOTAL ATOMIC SPINS  :
   0.0000000   0.0000000   0.0000000   0.0000000   0.0000000   0.0000000
  -0.0000001   0.0000000   0.0000000   0.0000000   0.0000000   0.0000001
   0.0000000   0.0000001   0.0000000   0.0000000   0.0000000   0.0000000
  -0.0000001   0.0000001   0.0000003   0.0000000   0.0000000   0.0000002
  -0.0000003  -0.0000001   0.0000040   0.0000007   0.0000000   0.0000000
   0.0000000   0.0000020  -0.0000001  -0.0000004   0.0000000  -0.0000001
  -0.0000015   0.0000000  -0.0000012   0.0000000   0.0000000  -0.0000003
  -0.0000003   0.0000001   0.0000000   0.0000002   0.0000000   0.0000000
   0.0000006   0.0000002   0.0000003   0.0000000   0.0000000   0.0000000
  -0.0000012  -0.0000003  -0.0000010  -0.0000245  -0.0000009  -0.0000001
  -0.0000021  -0.0000011   0.0000000  -0.0000002  -0.0000009   0.0000000
  -0.0000003  -0.0000001  -0.0000001  -0.0000007  -0.0000004  -0.0000008
  -0.0000010  -0.0000006  -0.0000001  -0.0000004  -0.0000005  -0.0000004
  -0.0000004  -0.0000009  -0.0000002  -0.0000004  -0.0000007  -0.0000012
  -0.0000002  -0.0000001  -0.0000001   0.0000000  -0.0000002  -0.0000001
  -0.0000002  -0.0000002  -0.0000001  -0.0000006  -0.0000001   0.0000000
  -0.0000001  -0.0000002   0.0000000   0.0000000  -0.0000002  -0.0000016
  -0.0000001  -0.0000002  -0.0000002  -0.0000001  -0.0000001   0.0000000
  -0.0000002   0.0000000  -0.0000001   0.0000001   0.0000000  -0.0000001
   0.0000000   0.0000000   0.0000001   0.0000001   0.0000002   0.0000004
   0.0000000   0.0000000   0.0000002   0.0000000   0.0000000   0.0000000
   0.0000006  -0.0000039  -0.0000003  -0.0000004  -0.0000025  -0.0000001
  -0.0000001   0.0000010  -0.0000042  -0.0000001  -0.0000002  -0.0000018
  -0.0000001   0.0000000  -0.0000003   0.0000015   0.0000000  -0.0000002
   0.0000006  -0.0000163   0.0000674   0.0000000
 TTTTTTTTTTTTTTTTTTTTTTTTTTTTTT MOQGAD      TELAPSE    13712.62 TCPU    13243.58
 WARNING **** GENBUD **** COUL. BIPO BUFFER TOO SMALL - TO AVOID I/O SET BIPOSIZE =     1946875
 TTTTTTTTTTTTTTTTTTTTTTTTTTTTTT SHELLX      TELAPSE    13789.86 TCPU    13319.10
 TTTTTTTTTTTTTTTTTTTTTTTTTTTTTT MONMO3      TELAPSE    13796.35 TCPU    13325.58
 NUMERICALLY INTEGRATED DENSITY    868.0000760397    868.0000760398
 TTTTTTTTTTTTTTTTTTTTTTTTTTTTTT NUMDFT      TELAPSE    13802.34 TCPU    13331.55
 CYC  64 ETOT(AU) -3.084438412423E+04 DETOT -4.83E-07 tst  1.43E-09 PX  8.37E-04
 MODIFIED BROYDEN: MIX%=  90 W0=  1.000000000000E-04 W=  4.301683038616E+02
 TTTTTTTTTTTTTTTTTTTTTTTTTTTTTT FDIK        TELAPSE    13898.11 TCPU    13419.07

    ALPHA      ELECTRONS
 INSULATING STATE
 TOP OF VALENCE BANDS -    BAND    868; K    2; EIG -9.7367998E-02 AU
 TOP OF VALENCE BANDS -    BAND    868; K    1; EIG -9.9021105E-02 AU
 BOTTOM OF VIRTUAL BANDS - BAND    869; K    3; EIG -9.2707630E-02 AU
 BOTTOM OF VIRTUAL BANDS - BAND    869; K    1; EIG -9.0047404E-02 AU

    BETA       ELECTRONS
 INSULATING STATE
 TOP OF VALENCE BANDS -    BAND    868; K    2; EIG -9.7366174E-02 AU
 TOP OF VALENCE BANDS -    BAND    868; K    1; EIG -9.9021105E-02 AU
 BOTTOM OF VIRTUAL BANDS - BAND    869; K    3; EIG -9.2705863E-02 AU
 BOTTOM OF VIRTUAL BANDS - BAND    869; K    1; EIG -9.0047404E-02 AU
 TTTTTTTTTTTTTTTTTTTTTTTTTTTTTT PDIG        TELAPSE    13901.08 TCPU    13422.04
 CHARGE NORMALIZATION FACTOR   1.00000000
 TOTAL ATOMIC CHARGES:
   8.6940136   8.6692959   8.6157009   8.6352878   8.8016308   8.6604996
   8.6108311   8.6403543   8.5193133   8.6620002   8.6919850   8.6444795
   8.5809581   8.7320367   8.7265587   8.8011310   8.6533596   8.5951206
   8.6553315   8.7002319   8.5871843   8.7878356   8.6435341   8.6402700
   8.5933330   8.6271176   8.6619907   8.6501550   8.7548813   8.6479714
   8.8172652   8.6097052   8.5315406   8.7046778   8.6275870   8.6656363
   8.6156421   8.8192119   8.5853031   8.6870030   8.5814127   8.5256118
   8.6059712   8.6642552   8.8184451   8.5937690   8.6585508   8.6278280
   8.5782883   8.8314688   8.6133662   8.5862815   8.8754782   8.6139652
   8.7895073   8.7277839  13.4038238  13.8826237  14.0180937  14.0558934
  14.0878702  14.0022422  13.9864007  13.9898044  13.6013724  13.6831146
  14.0816292  13.6520024  14.0284340  14.0498706  13.9952413  14.0007771
  13.3133102  13.9307526  14.0693002  14.0071728  14.0072886  14.0285381
  13.9861207  13.9872207  13.2976354  13.3932313  13.9524865  13.8461657
  14.0644876  14.0421120  14.0037839  13.9903241  13.9850682  14.0127808
  13.9974915  13.9813272  13.9971904  13.9656796  14.0044196  13.9829446
  14.0189022  14.0288195  14.0521615  14.1442539  13.3730840  13.4796836
  14.0517612  14.0367600  14.0087734  14.0784704  13.6378733  13.5353935
  14.0131813  14.0690200  14.1235162  14.0259161  13.9628394  13.6524279
  14.0368893  14.0128232  13.6719166  14.0319410  13.8036740  13.5974990
  12.6581077  12.6448778  12.8916447  12.6614887  12.8600778  12.9212171
  13.3424502  13.0355823  13.0407481  12.7140679  12.9201274  12.7434117
  12.8291020  12.6941180  13.2063852  12.6492581  13.1217353  12.8885840
  12.7348502  12.6627422  13.1057257  12.8058429  13.0325650  13.2761290
  12.7194478  13.1134936  13.0840066  12.5886583
 SUMMED SPIN DENSITY           0.00000000
 TOTAL ATOMIC SPINS  :
   0.0000000   0.0000000   0.0000000   0.0000000   0.0000000   0.0000000
  -0.0000002   0.0000000   0.0000000   0.0000001   0.0000000   0.0000001
   0.0000000   0.0000001   0.0000000   0.0000000   0.0000000   0.0000000
  -0.0000001   0.0000001   0.0000005  -0.0000001   0.0000000   0.0000003
  -0.0000004  -0.0000001   0.0000061   0.0000012   0.0000000   0.0000000
   0.0000000   0.0000031  -0.0000001  -0.0000006  -0.0000001  -0.0000002
  -0.0000023  -0.0000001  -0.0000018   0.0000000   0.0000000  -0.0000004
  -0.0000005   0.0000001   0.0000001   0.0000003   0.0000000   0.0000000
   0.0000009   0.0000003   0.0000005   0.0000000   0.0000000   0.0000000
  -0.0000019  -0.0000005  -0.0000015  -0.0000381  -0.0000014  -0.0000002
  -0.0000032  -0.0000016   0.0000000  -0.0000002  -0.0000013   0.0000001
  -0.0000005  -0.0000002  -0.0000001  -0.0000012  -0.0000007  -0.0000012
  -0.0000016  -0.0000009  -0.0000001  -0.0000007  -0.0000008  -0.0000006
  -0.0000006  -0.0000014  -0.0000003  -0.0000006  -0.0000011  -0.0000018
  -0.0000003  -0.0000001  -0.0000001   0.0000000  -0.0000003  -0.0000001
  -0.0000003  -0.0000004  -0.0000002  -0.0000008  -0.0000001   0.0000000
  -0.0000002  -0.0000003   0.0000000   0.0000000  -0.0000003  -0.0000025
  -0.0000001  -0.0000002  -0.0000002  -0.0000001  -0.0000001   0.0000000
  -0.0000003   0.0000001  -0.0000001   0.0000002   0.0000001  -0.0000002
   0.0000000   0.0000000   0.0000001   0.0000001   0.0000004   0.0000005
   0.0000000   0.0000000   0.0000003   0.0000000   0.0000000   0.0000000
   0.0000009  -0.0000061  -0.0000005  -0.0000007  -0.0000039  -0.0000002
  -0.0000001   0.0000016  -0.0000065  -0.0000001  -0.0000003  -0.0000028
  -0.0000002   0.0000000  -0.0000004   0.0000023   0.0000001  -0.0000003
   0.0000009  -0.0000254   0.0001051   0.0000001
 TTTTTTTTTTTTTTTTTTTTTTTTTTTTTT MOQGAD      TELAPSE    13901.17 TCPU    13422.13
 WARNING **** GENBUD **** COUL. BIPO BUFFER TOO SMALL - TO AVOID I/O SET BIPOSIZE =     1946875
 TTTTTTTTTTTTTTTTTTTTTTTTTTTTTT SHELLX      TELAPSE    13978.33 TCPU    13497.60
 TTTTTTTTTTTTTTTTTTTTTTTTTTTTTT MONMO3      TELAPSE    13984.64 TCPU    13503.90
 NUMERICALLY INTEGRATED DENSITY    868.0000760398    868.0000760400
 TTTTTTTTTTTTTTTTTTTTTTTTTTTTTT NUMDFT      TELAPSE    13990.73 TCPU    13509.98
 CYC  65 ETOT(AU) -3.084438412434E+04 DETOT -1.10E-07 tst  9.59E-10 PX  5.90E-04
 MODIFIED BROYDEN: MIX%=  90 W0=  1.000000000000E-04 W=  1.300059451973E+03
 TTTTTTTTTTTTTTTTTTTTTTTTTTTTTT FDIK        TELAPSE    14085.23 TCPU    13596.87

    ALPHA      ELECTRONS
 INSULATING STATE
 TOP OF VALENCE BANDS -    BAND    868; K    2; EIG -9.7367378E-02 AU
 TOP OF VALENCE BANDS -    BAND    868; K    1; EIG -9.9020546E-02 AU
 BOTTOM OF VIRTUAL BANDS - BAND    869; K    3; EIG -9.2707455E-02 AU
 BOTTOM OF VIRTUAL BANDS - BAND    869; K    1; EIG -9.0047927E-02 AU

    BETA       ELECTRONS
 INSULATING STATE
 TOP OF VALENCE BANDS -    BAND    868; K    2; EIG -9.7364236E-02 AU
 TOP OF VALENCE BANDS -    BAND    868; K    1; EIG -9.9020546E-02 AU
 BOTTOM OF VIRTUAL BANDS - BAND    869; K    3; EIG -9.2704410E-02 AU
 BOTTOM OF VIRTUAL BANDS - BAND    869; K    1; EIG -9.0047927E-02 AU
 TTTTTTTTTTTTTTTTTTTTTTTTTTTTTT PDIG        TELAPSE    14088.20 TCPU    13599.83
 CHARGE NORMALIZATION FACTOR   1.00000000
 TOTAL ATOMIC CHARGES:
   8.6940129   8.6692965   8.6157061   8.6352891   8.8016297   8.6605047
   8.6108457   8.6403567   8.5192842   8.6620036   8.6919833   8.6444798
   8.5809603   8.7320268   8.7265603   8.8011358   8.6533628   8.5951203
   8.6553306   8.7002300   8.5871803   8.7878395   8.6435310   8.6402781
   8.5933385   8.6271244   8.6619858   8.6501492   8.7548801   8.6479606
   8.8172688   8.6096962   8.5315496   8.7046797   8.6275922   8.6656375
   8.6156504   8.8192159   8.5853099   8.6870073   8.5814141   8.5256144
   8.6059820   8.6642554   8.8184471   8.5937693   8.6585522   8.6278277
   8.5782808   8.8314702   8.6133678   8.5862864   8.8754747   8.6139702
   8.7895162   8.7277797  13.4038089  13.8826273  14.0180866  14.0558917
  14.0878724  14.0022295  13.9864132  13.9898151  13.6013658  13.6831027
  14.0816052  13.6519925  14.0284103  14.0498608  13.9952260  14.0007777
  13.3133073  13.9307629  14.0693080  14.0071707  14.0072977  14.0285379
  13.9861397  13.9872303  13.2976299  13.3932416  13.9524791  13.8461236
  14.0644816  14.0421060  14.0037828  13.9903244  13.9850780  14.0127913
  13.9974962  13.9813264  13.9971963  13.9656900  14.0044208  13.9829464
  14.0189040  14.0288287  14.0521697  14.1442651  13.3730901  13.4796871
  14.0517671  14.0367597  14.0087812  14.0784764  13.6378731  13.5354055
  14.0131750  14.0690178  14.1235209  14.0258998  13.9628329  13.6524235
  14.0368918  14.0128229  13.6719147  14.0319293  13.8036489  13.5974538
  12.6581030  12.6448684  12.8916417  12.6614840  12.8600627  12.9212318
  13.3424047  13.0355612  13.0407393  12.7140711  12.9203157  12.7434129
  12.8291042  12.6941181  13.2064460  12.6492493  13.1217395  12.8885647
  12.7348461  12.6627398  13.1057316  12.8058380  13.0325677  13.2761347
  12.7194428  13.1135477  13.0838920  12.5886452
 SUMMED SPIN DENSITY           0.00000000
 TOTAL ATOMIC SPINS  :
   0.0000000   0.0000000   0.0000000   0.0000000   0.0000000   0.0000000
  -0.0000004  -0.0000001   0.0000000   0.0000001   0.0000000   0.0000002
   0.0000000   0.0000002   0.0000000   0.0000000   0.0000000   0.0000001
  -0.0000001   0.0000002   0.0000008  -0.0000001   0.0000000   0.0000004
  -0.0000007  -0.0000002   0.0000105   0.0000020   0.0000000  -0.0000001
   0.0000000   0.0000054  -0.0000002  -0.0000010  -0.0000001  -0.0000003
  -0.0000040  -0.0000001  -0.0000031   0.0000000  -0.0000001  -0.0000007
  -0.0000008   0.0000002   0.0000001   0.0000005   0.0000001   0.0000001
   0.0000015   0.0000005   0.0000009   0.0000000   0.0000000   0.0000000
  -0.0000032  -0.0000009  -0.0000026  -0.0000656  -0.0000024  -0.0000004
  -0.0000055  -0.0000028   0.0000001  -0.0000004  -0.0000023   0.0000001
  -0.0000009  -0.0000004  -0.0000002  -0.0000020  -0.0000012  -0.0000020
  -0.0000027  -0.0000016  -0.0000002  -0.0000012  -0.0000014  -0.0000011
  -0.0000010  -0.0000024  -0.0000005  -0.0000011  -0.0000019  -0.0000032
  -0.0000006  -0.0000003  -0.0000002   0.0000000  -0.0000004  -0.0000002
  -0.0000005  -0.0000006  -0.0000004  -0.0000015  -0.0000002   0.0000000
  -0.0000003  -0.0000005  -0.0000001  -0.0000001  -0.0000006  -0.0000042
  -0.0000002  -0.0000004  -0.0000004  -0.0000002  -0.0000002   0.0000000
  -0.0000005   0.0000001  -0.0000002   0.0000003   0.0000001  -0.0000003
   0.0000000   0.0000000   0.0000002   0.0000001   0.0000007   0.0000009
  -0.0000001   0.0000000   0.0000005   0.0000000   0.0000000   0.0000000
   0.0000016  -0.0000105  -0.0000009  -0.0000013  -0.0000067  -0.0000003
  -0.0000002   0.0000028  -0.0000113  -0.0000001  -0.0000005  -0.0000048
  -0.0000003   0.0000000  -0.0000007   0.0000040   0.0000001  -0.0000005
   0.0000015  -0.0000438   0.0001810   0.0000001
 TTTTTTTTTTTTTTTTTTTTTTTTTTTTTT MOQGAD      TELAPSE    14088.30 TCPU    13599.93
 WARNING **** GENBUD **** COUL. BIPO BUFFER TOO SMALL - TO AVOID I/O SET BIPOSIZE =     1946875
 TTTTTTTTTTTTTTTTTTTTTTTTTTTTTT SHELLX      TELAPSE    14164.96 TCPU    13675.32
 TTTTTTTTTTTTTTTTTTTTTTTTTTTTTT MONMO3      TELAPSE    14171.84 TCPU    13682.19
 NUMERICALLY INTEGRATED DENSITY    868.0000760396    868.0000760399
 TTTTTTTTTTTTTTTTTTTTTTTTTTTTTT NUMDFT      TELAPSE    14177.87 TCPU    13688.21
 CYC  66 ETOT(AU) -3.084438412432E+04 DETOT  2.01E-08 tst  2.49E-10 PX  1.87E-04
 MODIFIED BROYDEN: MIX%=  90 W0=  1.000000000000E-04 W=  2.250045960304E+03
 TTTTTTTTTTTTTTTTTTTTTTTTTTTTTT FDIK        TELAPSE    14239.83 TCPU    13743.12

    ALPHA      ELECTRONS
 INSULATING STATE
 TOP OF VALENCE BANDS -    BAND    868; K    2; EIG -9.7370206E-02 AU
 TOP OF VALENCE BANDS -    BAND    868; K    1; EIG -9.9023039E-02 AU
 BOTTOM OF VIRTUAL BANDS - BAND    869; K    3; EIG -9.2710026E-02 AU
 BOTTOM OF VIRTUAL BANDS - BAND    869; K    1; EIG -9.0048608E-02 AU

    BETA       ELECTRONS
 INSULATING STATE
 TOP OF VALENCE BANDS -    BAND    868; K    2; EIG -9.7365083E-02 AU
 TOP OF VALENCE BANDS -    BAND    868; K    1; EIG -9.9023039E-02 AU
 BOTTOM OF VIRTUAL BANDS - BAND    869; K    3; EIG -9.2705062E-02 AU
 BOTTOM OF VIRTUAL BANDS - BAND    869; K    1; EIG -9.0048608E-02 AU
 TTTTTTTTTTTTTTTTTTTTTTTTTTTTTT PDIG        TELAPSE    14242.83 TCPU    13746.12
 CHARGE NORMALIZATION FACTOR   1.00000000
 TOTAL ATOMIC CHARGES:
   8.6940116   8.6692967   8.6157042   8.6352861   8.8016269   8.6605036
   8.6108373   8.6403580   8.5192987   8.6620030   8.6919871   8.6444801
   8.5809579   8.7320308   8.7265577   8.8011330   8.6533614   8.5951188
   8.6553303   8.7002283   8.5871810   8.7878392   8.6435268   8.6402730
   8.5933322   8.6271200   8.6619916   8.6501518   8.7548802   8.6479610
   8.8172670   8.6096981   8.5315527   8.7046756   8.6275928   8.6656345
   8.6156454   8.8192137   8.5853120   8.6870084   8.5814119   8.5256110
   8.6059798   8.6642563   8.8184447   8.5937689   8.6585534   8.6278263
   8.5782842   8.8314714   8.6133661   8.5862865   8.8754750   8.6139699
   8.7895112   8.7277807  13.4038114  13.8826584  14.0180948  14.0558984
  14.0878700  14.0022279  13.9864164  13.9898099  13.6013709  13.6831107
  14.0816075  13.6519927  14.0284072  14.0498635  13.9952200  14.0007742
  13.3133068  13.9307703  14.0693086  14.0071740  14.0072933  14.0285326
  13.9861347  13.9872286  13.2976326  13.3932451  13.9524712  13.8461150
  14.0644754  14.0420991  14.0037767  13.9903208  13.9850796  14.0127879
  13.9974930  13.9813187  13.9971912  13.9656886  14.0044158  13.9829441
  14.0188993  14.0288218  14.0521726  14.1442656  13.3730887  13.4796852
  14.0517624  14.0367593  14.0087816  14.0784771  13.6378767  13.5354144
  14.0131734  14.0690178  14.1235204  14.0259027  13.9628341  13.6524247
  14.0368920  14.0128200  13.6719176  14.0319353  13.8036596  13.5974675
  12.6581030  12.6448679  12.8916413  12.6614844  12.8600619  12.9212257
  13.3424262  13.0355493  13.0407380  12.7140717  12.9202723  12.7434147
  12.8291027  12.6941207  13.2064374  12.6492441  13.1217435  12.8885653
  12.7348457  12.6627403  13.1057328  12.8058362  13.0325697  13.2761354
  12.7194440  13.1135121  13.0839969  12.5886437
 SUMMED SPIN DENSITY           0.00000000
 TOTAL ATOMIC SPINS  :
   0.0000000   0.0000000   0.0000000  -0.0000001   0.0000000  -0.0000001
  -0.0000007  -0.0000001   0.0000001   0.0000002   0.0000000   0.0000003
   0.0000000   0.0000003   0.0000000   0.0000000   0.0000000   0.0000000
  -0.0000002   0.0000002   0.0000013  -0.0000002  -0.0000001   0.0000006
  -0.0000012  -0.0000004   0.0000173   0.0000032   0.0000000  -0.0000001
   0.0000000   0.0000090  -0.0000003  -0.0000018  -0.0000001  -0.0000005
  -0.0000066  -0.0000001  -0.0000052   0.0000000  -0.0000001  -0.0000012
  -0.0000014   0.0000003   0.0000001   0.0000009   0.0000001   0.0000001
   0.0000028   0.0000009   0.0000015   0.0000000   0.0000000   0.0000000
  -0.0000052  -0.0000015  -0.0000043  -0.0001068  -0.0000040  -0.0000007
  -0.0000090  -0.0000047   0.0000001  -0.0000006  -0.0000038   0.0000002
  -0.0000015  -0.0000006  -0.0000003  -0.0000032  -0.0000019  -0.0000033
  -0.0000043  -0.0000027  -0.0000003  -0.0000019  -0.0000022  -0.0000018
  -0.0000016  -0.0000040  -0.0000009  -0.0000017  -0.0000030  -0.0000051
  -0.0000009  -0.0000004  -0.0000003   0.0000000  -0.0000007  -0.0000004
  -0.0000008  -0.0000010  -0.0000006  -0.0000024  -0.0000003   0.0000000
  -0.0000005  -0.0000008  -0.0000001  -0.0000001  -0.0000009  -0.0000069
  -0.0000003  -0.0000007  -0.0000006  -0.0000004  -0.0000003  -0.0000001
  -0.0000008   0.0000001  -0.0000004   0.0000004   0.0000002  -0.0000005
   0.0000000  -0.0000001   0.0000004   0.0000002   0.0000011   0.0000014
   0.0000000   0.0000001   0.0000009   0.0000000   0.0000000   0.0000000
   0.0000026  -0.0000171  -0.0000015  -0.0000018  -0.0000107  -0.0000005
  -0.0000004   0.0000046  -0.0000183  -0.0000001  -0.0000009  -0.0000077
  -0.0000003   0.0000000  -0.0000012   0.0000065   0.0000002  -0.0000008
   0.0000026  -0.0000713   0.0002945   0.0000002
 TTTTTTTTTTTTTTTTTTTTTTTTTTTTTT MOQGAD      TELAPSE    14242.92 TCPU    13746.21
 WARNING **** GENBUD **** COUL. BIPO BUFFER TOO SMALL - TO AVOID I/O SET BIPOSIZE =     1946875
 TTTTTTTTTTTTTTTTTTTTTTTTTTTTTT SHELLX      TELAPSE    14319.41 TCPU    13822.56
 +++ ENERGIES IN A.U. +++
 ::: EXT EL-POLE                                  -4.3141031804485E+04
 ::: EXT EL-SPHEROPOLE                             3.1269830953512E+02
 ::: BIELET ZONE E-E                               5.2469309452222E+04
 ::: TOTAL E-E                                     9.6409759572723E+03
 ::: TOTAL E-N + N-E                              -6.3789856289589E+04
 ::: TOTAL N-N                                    -5.1445105675087E+03
 ::: KINETIC ENERGY                                3.0736422057323E+04
 ::: PSEUDO TOTAL   ENERGY                        -2.8556968842502E+04
 ::: VIRIAL COEFFICIENT                            1.0367571019594E+00
 TTTTTTTTTTTTTTTTTTTTTTTTTTTTTT MONMO3      TELAPSE    14326.04 TCPU    13829.15
 NUMERICALLY INTEGRATED DENSITY    868.0000760392    868.0000760396
 TTTTTTTTTTTTTTTTTTTTTTTTTTTTTT NUMDFT      TELAPSE    14331.73 TCPU    13834.83
 CYC  67 ETOT(AU) -3.084438412433E+04 DETOT -1.64E-08 tst  1.32E-10 PX  1.87E-04

 == SCF ENDED - CONVERGENCE ON ENERGY      E(AU) -3.0844384124334E+04 CYCLES  67


 ENERGY EXPRESSION=HARTREE+FOCK EXCH*0.05000+(BECKE  EXCH)*0.95000+LYP    CORR

 FINITE TEMPERATURE DFT CALCULATION 
 TEMPERATURE      (T)    1.000000000000E-13 HARTREE 
 ENERGY           (E)   -3.084438412433E+04
 FREE ENERGY      (F)   -3.084438412433E+04
 ELECTRON ENTROPY (S)    0.000000000000E+00
 (E(T)+F(T))/2    (E0)  -3.084438412433E+04


 TOTAL ENERGY(DFT)(AU)( 67) -3.0844384124334E+04 DE-1.6E-08 tester 1.3E-10
 TTTTTTTTTTTTTTTTTTTTTTTTTTTTTT EDFT        TELAPSE    14331.94 TCPU    13835.02
 EIGENVECTORS IN FORTRAN UNIT 10
 TTTTTTTTTTTTTTTTTTTTTTTTTTTTTT END         TELAPSE    14372.46 TCPU    13875.43
 EEEEEEEEEE TERMINATION  DATE 22 07 2014 TIME 11:46:41.2
NODE    0 CPU TIME =     13875.431
    TOTAL CPU TIME =   2686598.098
