 PROCESS            3  OF           12  WORKING
 PROCESS            1  OF           12  WORKING
 PROCESS            2  OF           12  WORKING
 PROCESS            4  OF           12  WORKING
 PROCESS            6  OF           12  WORKING
 PROCESS            8  OF           12  WORKING
 PROCESS           11  OF           12  WORKING
 PROCESS           10  OF           12  WORKING
 PROCESS            0  OF           12  WORKING
 PROCESS            9  OF           12  WORKING
 PROCESS            7  OF           12  WORKING
 PROCESS            5  OF           12  WORKING

         
 *******************************************************************************
 *                                                                             *
 *                                CRYSTAL09                                    *
 *                              public : 1.0                                   *
 *                      March 5th, 2010 - parallel executable                  *
 *                                                                             *
 *                                                                             *
 *                                                                             *
 *                              MAIN AUTHORS                                   *
 *                                                                             *
 *    R. DOVESI(1,10), V.R. SAUNDERS(2), C. ROETTI(1,10), R. ORLANDO (1,3),    *
 *  C.M. ZICOVICH-WILSON(1,4), F. PASCALE(5), B. CIVALLERI(1,10), K. DOLL(6),  *
 *       N.M. HARRISON(2,7), I. J. BUSH(2), Ph. D'ARCO(8), M. LLUNELL(9)       *
 *                                                                             *
 * (1) THEORETICAL CHEMISTRY GROUP - UNIVERSITA' DI TORINO - TORINO (ITALY)    *
 *      http://www.crystal.unito.it                                            *
 * (2) COMPUTATIONAL SCIENCE & ENGINEERING DEPARTMENT - CCLRC DARESBURY (UK)   *
 *     http://www.cse.clrc.ac.uk/cmg/CRYSTAL/                                  *
 * (3) UNIVERSITA' DEL PIEMONTE ORIENTALE - ALESSANDRIA (ITALY)                *
 * (4) UNIVERSIDAD AUTONOMA DEL ESTADO DE MORELOS - CUERNAVACA (MEXICO)        *
 * (5) UNIVERSITE' HENRI POINCARE' - NANCY (FRANCE)                            *
 * (6) MPI FUER FESTKOERPERFORSCHUNG - STUTTGART (GERMANY)                     *
 * (7) IMPERIAL COLLEGE - LONDON (UK)                                          *
 * (8) UNIVERSITE' PIERRE ET MARIE CURIE - PARIS (FRANCE)                      *
 * (9) UNIVERSIDAD DE BARCELONA - BARCELONA (SPAIN)                            *
 *(10) NIS - NANOSTRUCTURED INTERFACES AND SURFACES - TORINO (ITALY)           *
 *     http://www.crystal.unito.it                                             *
 *******************************************************************************
 EEEEEEEEEE STARTING  DATE 29 07 2015 TIME 08:54:54.5
 Created with astools                                                            

 CRYSTAL CALCULATION
 (INPUT ACCORDING TO THE INTERNATIONAL TABLES FOR X-RAY CRYSTALLOGRAPHY)
 CRYSTAL FAMILY                       :  TRICLINIC   
 CRYSTAL CLASS  (GROTH - 1921)        :  TRICLINIC PEDIAL                     

 SPACE GROUP (NONCENTROSYMMETRIC)     :  P 1             

 LATTICE PARAMETERS  (ANGSTROMS AND DEGREES) - CONVENTIONAL CELL
        A           B           C        ALPHA        BETA       GAMMA
     5.11678     8.86326     5.63534    90.00000    90.00000    90.00000


 NUMBER OF IRREDUCIBLE ATOMS IN THE CONVENTIONAL CELL:   18

 INPUT COORDINATES

 ATOM AT. N.              COORDINATES
   1  14     2.503723883860E-01 -2.492160771756E-01  3.328512918163E-01
   2  14    -2.498136730637E-01  2.506995025818E-01  3.328501266998E-01
   3  14     2.501496021113E-01  2.513315332792E-01 -3.337855856418E-01
   4  14    -2.496533149893E-01 -2.487721615186E-01 -3.337529171307E-01
   5  14    -5.824630714610E-04 -4.989803477859E-01 -5.161000387731E-04
   6  14     4.994050972472E-01  1.034797909020E-03 -5.350238835845E-04
   7   8     1.774981212596E-01 -3.920430952540E-01  1.668386573778E-01
   8   8    -4.994249963877E-01  2.864125820628E-01  4.998959543302E-01
   9   8     1.386451748455E-03 -2.135463667724E-01 -4.992695340730E-01
  10   8     3.213882482868E-01  1.088693156788E-01 -1.663378834994E-01
  11   8     5.593182218247E-04  2.155744765013E-01  4.991516546318E-01
  12   8    -1.784074607303E-01  3.931862805046E-01  1.655224382666E-01
  13   8     3.212711260289E-01 -1.065998833631E-01  1.655538566642E-01
  14   8     1.778290174028E-01  3.943355351783E-01 -1.679435033962E-01
  15   8    -3.225996825540E-01 -1.058791004951E-01 -1.679613665754E-01
  16   8    -3.221722184748E-01  1.078108392690E-01  1.667896473658E-01
  17   8    -1.788656255708E-01 -3.913215381223E-01 -1.663494093195E-01
  18   8    -4.986399358507E-01 -2.844962924777E-01  4.983976964057E-01

 *******************************************************************************

 << INFORMATION >>: FROM NOW ON, ALL COORDINATES REFER TO THE PRIMITIVE CELL

 *******************************************************************************

 LATTICE PARAMETERS  (ANGSTROMS AND DEGREES) - PRIMITIVE CELL
       A          B          C         ALPHA     BETA     GAMMA        VOLUME
    5.11678    8.86326    5.63534    90.00000  90.00000  90.00000    255.570442

 COORDINATES OF THE EQUIVALENT ATOMS (FRACTIONAL UNITS)

 N. ATOM EQUIV AT. N.          X                  Y                  Z

   1   1   1   14 SI    2.50372388386E-01 -2.49216077176E-01  3.32851291816E-01

   2   2   1   14 SI   -2.49813673064E-01  2.50699502582E-01  3.32850126700E-01

   3   3   1   14 SI    2.50149602111E-01  2.51331533279E-01 -3.33785585642E-01

   4   4   1   14 SI   -2.49653314989E-01 -2.48772161519E-01 -3.33752917131E-01

   5   5   1   14 SI   -5.82463071461E-04 -4.98980347786E-01 -5.16100038773E-04

   6   6   1   14 SI    4.99405097247E-01  1.03479790902E-03 -5.35023883584E-04

   7   7   1    8 O     1.77498121260E-01 -3.92043095254E-01  1.66838657378E-01

   8   8   1    8 O    -4.99424996388E-01  2.86412582063E-01  4.99895954330E-01

   9   9   1    8 O     1.38645174845E-03 -2.13546366772E-01 -4.99269534073E-01

  10  10   1    8 O     3.21388248287E-01  1.08869315679E-01 -1.66337883499E-01

  11  11   1    8 O     5.59318221825E-04  2.15574476501E-01  4.99151654632E-01

  12  12   1    8 O    -1.78407460730E-01  3.93186280505E-01  1.65522438267E-01

  13  13   1    8 O     3.21271126029E-01 -1.06599883363E-01  1.65553856664E-01

  14  14   1    8 O     1.77829017403E-01  3.94335535178E-01 -1.67943503396E-01

  15  15   1    8 O    -3.22599682554E-01 -1.05879100495E-01 -1.67961366575E-01

  16  16   1    8 O    -3.22172218475E-01  1.07810839269E-01  1.66789647366E-01

  17  17   1    8 O    -1.78865625571E-01 -3.91321538122E-01 -1.66349409320E-01

  18  18   1    8 O    -4.98639935851E-01 -2.84496292478E-01  4.98397696406E-01

 NUMBER OF SYMMETRY OPERATORS         :    1
 *******************************************************************************
 * GEOMETRY EDITING - INPUT COORDINATES ARE GIVEN IN ANGSTROM         
 *******************************************************************************

 GCALCO - MAX INDICES DIRECT LATTICE VECTOR    18    10    17
 NO.OF VECTORS CREATED 6999 STARS 1055 RMAX   142.00551 BOHR

 GEOMETRY FOR WAVE FUNCTION - DIMENSIONALITY OF THE SYSTEM    3
 (NON PERIODIC DIRECTION: LATTICE PARAMETER FORMALLY SET TO 500)
 *******************************************************************************
 LATTICE PARAMETERS (ANGSTROMS AND DEGREES) - BOHR = 0.5291772083 ANGSTROM
 PRIMITIVE CELL - CENTRING CODE 1/0 VOLUME=   255.570442 - DENSITY  2.338 g/cm^3
         A              B              C           ALPHA      BETA       GAMMA 
     5.11678200     8.86326039     5.63534100    90.000000  90.000000  90.000000
 *******************************************************************************
 ATOMS IN THE ASYMMETRIC UNIT   18 - ATOMS IN THE UNIT CELL:   18
     ATOM              X/A                 Y/B                 Z/C    
 *******************************************************************************
   1 T  14 SI    2.503723883860E-01 -2.492160771756E-01  3.328512918163E-01
   2 T  14 SI   -2.498136730637E-01  2.506995025818E-01  3.328501266998E-01
   3 T  14 SI    2.501496021113E-01  2.513315332792E-01 -3.337855856418E-01
   4 T  14 SI   -2.496533149893E-01 -2.487721615186E-01 -3.337529171307E-01
   5 T  14 SI   -5.824630714610E-04 -4.989803477859E-01 -5.161000387731E-04
   6 T  14 SI    4.994050972472E-01  1.034797909020E-03 -5.350238835845E-04
   7 T   8 O     1.774981212596E-01 -3.920430952540E-01  1.668386573778E-01
   8 T   8 O    -4.994249963877E-01  2.864125820628E-01  4.998959543302E-01
   9 T   8 O     1.386451748455E-03 -2.135463667724E-01 -4.992695340730E-01
  10 T   8 O     3.213882482868E-01  1.088693156788E-01 -1.663378834994E-01
  11 T   8 O     5.593182218247E-04  2.155744765013E-01  4.991516546318E-01
  12 T   8 O    -1.784074607303E-01  3.931862805046E-01  1.655224382666E-01
  13 T   8 O     3.212711260289E-01 -1.065998833631E-01  1.655538566642E-01
  14 T   8 O     1.778290174028E-01  3.943355351783E-01 -1.679435033962E-01
  15 T   8 O    -3.225996825540E-01 -1.058791004951E-01 -1.679613665754E-01
  16 T   8 O    -3.221722184748E-01  1.078108392690E-01  1.667896473658E-01
  17 T   8 O    -1.788656255708E-01 -3.913215381223E-01 -1.663494093195E-01
  18 T   8 O    -4.986399358507E-01 -2.844962924777E-01  4.983976964057E-01

 T = ATOM BELONGING TO THE ASYMMETRIC UNIT

 ****   1 SYMMOPS - TRANSLATORS IN FRACTIONAL UNITS
  V INV                   ROTATION MATRICES                       TRANSLATOR
  1  1  1.00  0.00  0.00  0.00  1.00  0.00  0.00  0.00  1.00    0.00  0.00  0.00

 DIRECT LATTICE VECTORS CARTESIAN COMPONENTS (ANGSTROM)
          X                    Y                    Z
   0.511678200000E+01   0.313312534912E-15   0.000000000000E+00
   0.000000000000E+00   0.886326039000E+01   0.000000000000E+00
   0.345065115888E-15   0.345065115888E-15   0.563534100000E+01


 CARTESIAN COORDINATES - PRIMITIVE CELL
 *******************************************************************************
 *      ATOM          X(ANGSTROM)         Y(ANGSTROM)         Z(ANGSTROM)
 *******************************************************************************
   1    14 SI    1.281100930190E+00 -2.208866985382E+00  1.875730531675E+00
   2    14 SI   -1.278242105686E+00  2.222014971026E+00  1.875723965847E+00
   3    14 SI    1.279960981390E+00  2.227616823671E+00 -1.880995595976E+00
   4    14 SI   -1.277421588378E+00 -2.204932445322E+00 -1.880811497776E+00
   5    14 SI   -2.980336559716E-03 -4.422592751919E+00 -2.908399708600E-03
   6    14 SI    2.555347012303E+00  9.171683318672E-03 -3.015042027143E-03
   7     8 O     9.082191918949E-01 -3.474780037338E+00  9.401927263061E-01
   8     8 O    -2.555448831867E+00  2.538549293795E+00  2.817084167171E+00
   9     8 O     7.094171350363E-03 -1.892717054042E+00 -2.813554075412E+00
  10     8 O     1.644473603845E+00  9.649370933423E-01 -9.373706947374E-01
  11     8 O     2.861909409705E-03  1.910692718669E+00  2.812889784564E+00
  12     8 O    -9.128720837305E-01  3.484912385888E+00  9.327753827837E-01
  13     8 O     1.643874314784E+00 -9.448225237908E-01  9.329524361679E-01
  14     8 O     9.099123153243E-01  3.495098529315E+00 -9.464189103722E-01
  15     8 O    -1.650672248898E+00 -9.384340375470E-01 -9.465195754784E-01
  16     8 O    -1.648485008392E+00  9.555555413056E-01  9.399165381760E-01
  17     8 O    -9.152164133394E-01 -3.468384688593E+00 -9.374356466640E-01
  18     8 O    -2.551431848242E+00 -2.521564720219E+00  2.808640972861E+00

 *******************************************************************************
 LOCAL ATOMIC FUNCTIONS BASIS SET
 *******************************************************************************
   ATOM  X(AU)  Y(AU)  Z(AU)    NO. TYPE  EXPONENT  S COEF   P COEF   D/F/G COEF
 *******************************************************************************
   1 SI  2.421 -4.174  3.545
                                  1 S  
                                         8.765E+04 2.370E-04 0.000E+00 0.000E+00
                                         1.285E+04 1.920E-03 0.000E+00 0.000E+00
                                         2.786E+03 1.090E-02 0.000E+00 0.000E+00
                                         7.280E+02 4.960E-02 0.000E+00 0.000E+00
                                         2.195E+02 1.668E-01 0.000E+00 0.000E+00
                                         7.590E+01 3.630E-01 0.000E+00 0.000E+00
                                         2.946E+01 4.051E-01 0.000E+00 0.000E+00
                                         1.199E+01 1.504E-01 0.000E+00 0.000E+00
                             2-   5 SP 
                                         1.660E+02-8.840E-03 9.090E-03 0.000E+00
                                         3.937E+01-8.590E-02 6.010E-02 0.000E+00
                                         1.271E+01-7.120E-02 1.952E-01 0.000E+00
                                         4.718E+00 4.147E-01 3.384E-01 0.000E+00
                                         1.848E+00 6.168E-01 3.006E-01 0.000E+00
                                         7.365E-01 1.154E-01 6.480E-02 0.000E+00
                             6-   9 SP 
                                         4.175E+00-1.990E-02-8.700E-03 0.000E+00
                                         1.447E+00-1.864E-01-4.380E-03 0.000E+00
                                         5.023E-01 9.670E-02 2.207E-01 0.000E+00
                            10-  13 SP 
                                         3.220E-01 1.000E+00 1.000E+00 0.000E+00
                            14-  17 SP 
                                         1.300E-01 1.000E+00 1.000E+00 0.000E+00
                            18-  22 D  
                                         6.000E-01 0.000E+00 0.000E+00 1.000E+00
   2 SI -2.416  4.199  3.545
   3 SI  2.419  4.210 -3.555
   4 SI -2.414 -4.167 -3.554
   5 SI -0.006 -8.357 -0.005
   6 SI  4.829  0.017 -0.006
   7 O   1.716 -6.566  1.777
                                133 S  
                                         8.020E+03 1.080E-03 0.000E+00 0.000E+00
                                         1.338E+03 8.040E-03 0.000E+00 0.000E+00
                                         2.554E+02 5.324E-02 0.000E+00 0.000E+00
                                         6.922E+01 1.681E-01 0.000E+00 0.000E+00
                                         2.390E+01 3.581E-01 0.000E+00 0.000E+00
                                         9.264E+00 3.855E-01 0.000E+00 0.000E+00
                                         3.851E+00 1.468E-01 0.000E+00 0.000E+00
                                         1.212E+00 7.280E-02 0.000E+00 0.000E+00
                           134- 137 SP 
                                         4.943E+01-8.830E-03 9.580E-03 0.000E+00
                                         1.047E+01-9.150E-02 6.960E-02 0.000E+00
                                         3.235E+00-4.020E-02 2.065E-01 0.000E+00
                                         1.217E+00 3.790E-01 3.470E-01 0.000E+00
                           138- 141 SP 
                                         4.763E-01 1.000E+00 1.000E+00 0.000E+00
                           142- 145 SP 
                                         1.900E-01 1.000E+00 1.000E+00 0.000E+00
   8 O  -4.829  4.797  5.324
   9 O   0.013 -3.577 -5.317
  10 O   3.108  1.823 -1.771
  11 O   0.005  3.611  5.316
  12 O  -1.725  6.586  1.763
  13 O   3.106 -1.785  1.763
  14 O   1.719  6.605 -1.788
  15 O  -3.119 -1.773 -1.789
  16 O  -3.115  1.806  1.776
  17 O  -1.730 -6.554 -1.771
  18 O  -4.822 -4.765  5.308
 INFORMATION **** TOLINTEG **** COULOMB AND EXCHANGE SERIES TOLERANCES MODIFIED
 INFORMATION **** READM2 **** FULL DIRECT SCF (MONO AND BIEL INT) SELECTED
 INFORMATION **** SMEAR **** FERMI SMEARING ACTIVE
 FERMI SMEARING - TEMPERATURE SMEARING OF FERMI SURFACE  0.1000E-12
 INFORMATION **** MAXCYCLE **** MAX NUMBER OF SCF CYCLES SET TO         150

 MODIFIED BROYDEN MIXING OF THE FOCK MATRIX
 WO PARAMETER(D.D. Johnson, PRB38, 12807,(1988)             1.0000E-04
 % OF FOCK/KS MATRICES MIXING WHEN BROYDEN METHOD IS ON             90
 NUMBER OF SCF ITERATIONS AFTER WHICH BROYDEN METHOD IS ACTIVE      20
 INFORMATION **** TOLDEE **** SCF TOL ON TOTAL ENERGY SET TO           7
 *******************************************************************************
 N. OF ATOMS PER CELL       18  COULOMB OVERLAP TOL         (T1) 10** -8
 NUMBER OF SHELLS           84  COULOMB PENETRATION TOL     (T2) 10** -8
 NUMBER OF AO              288  EXCHANGE OVERLAP TOL        (T3) 10** -8
 N. OF ELECTRONS PER CELL  180  EXCHANGE PSEUDO OVP (F(G))  (T4) 10** -8
 CORE ELECTRONS PER CELL    84  EXCHANGE PSEUDO OVP (P(G))  (T5) 10**-16
 N. OF SYMMETRY OPERATORS    1  POLE ORDER IN MONO ZONE                4
 *******************************************************************************
 TYPE OF CALCULATION :  RESTRICTED CLOSED SHELL
 KOHN-SHAM HAMILTONIAN

 (EXCHANGE)[CORRELATION] FUNCTIONAL:(BECKE)[LEE-YANG-PARR]

 NON-LOCAL WEIGHTING FACTOR (EXCHANGE) =           0.9000
 NON-LOCAL WEIGHTING FACTOR [CORRELATION] =        0.8100

 HYBRID EXCHANGE - PERCENTAGE OF FOCK EXCHANGE    20.0000

 CAPPA:IS1  8;IS2  8;IS3  8; K PTS MONK NET  260; SYMMOPS: K SPACE  2;G SPACE  1

 *******************************************************************************
 MAX NUMBER OF SCF CYCLES     150  CONVERGENCE ON DELTAP        10**-17
 WEIGHT OF F(I) IN F(I+1)      92% CONVERGENCE ON ENERGY        10**- 7
 SHRINK. FACT.(MONKH.)    8  8  8  NUMBER OF K POINTS IN THE IBZ    260
 SHRINKING FACTOR(GILAT NET)    8  NUMBER OF K POINTS(GILAT NET)    260
 *******************************************************************************
 *** K POINTS COORDINATES (OBLIQUE COORDINATES IN UNITS OF IS =  8)
   1-R(  0  0  0)   2-C(  1  0  0)   3-C(  2  0  0)   4-C(  3  0  0)
   5-R(  4  0  0)   6-C(  0  1  0)   7-C(  1  1  0)   8-C(  2  1  0)
   9-C(  3  1  0)  10-C(  4  1  0)  11-C(  5  1  0)  12-C(  6  1  0)
  13-C(  7  1  0)  14-C(  0  2  0)  15-C(  1  2  0)  16-C(  2  2  0)
  17-C(  3  2  0)  18-C(  4  2  0)  19-C(  5  2  0)  20-C(  6  2  0)
  21-C(  7  2  0)  22-C(  0  3  0)  23-C(  1  3  0)  24-C(  2  3  0)
  25-C(  3  3  0)  26-C(  4  3  0)  27-C(  5  3  0)  28-C(  6  3  0)
  29-C(  7  3  0)  30-R(  0  4  0)  31-C(  1  4  0)  32-C(  2  4  0)
  33-C(  3  4  0)  34-R(  4  4  0)  35-C(  0  0  1)  36-C(  1  0  1)
  37-C(  2  0  1)  38-C(  3  0  1)  39-C(  4  0  1)  40-C(  5  0  1)
  41-C(  6  0  1)  42-C(  7  0  1)  43-C(  0  1  1)  44-C(  1  1  1)
  45-C(  2  1  1)  46-C(  3  1  1)  47-C(  4  1  1)  48-C(  5  1  1)
  49-C(  6  1  1)  50-C(  7  1  1)  51-C(  0  2  1)  52-C(  1  2  1)
  53-C(  2  2  1)  54-C(  3  2  1)  55-C(  4  2  1)  56-C(  5  2  1)
  57-C(  6  2  1)  58-C(  7  2  1)  59-C(  0  3  1)  60-C(  1  3  1)
  61-C(  2  3  1)  62-C(  3  3  1)  63-C(  4  3  1)  64-C(  5  3  1)
  65-C(  6  3  1)  66-C(  7  3  1)  67-C(  0  4  1)  68-C(  1  4  1)
  69-C(  2  4  1)  70-C(  3  4  1)  71-C(  4  4  1)  72-C(  5  4  1)
  73-C(  6  4  1)  74-C(  7  4  1)  75-C(  0  5  1)  76-C(  1  5  1)
  77-C(  2  5  1)  78-C(  3  5  1)  79-C(  4  5  1)  80-C(  5  5  1)
  81-C(  6  5  1)  82-C(  7  5  1)  83-C(  0  6  1)  84-C(  1  6  1)
  85-C(  2  6  1)  86-C(  3  6  1)  87-C(  4  6  1)  88-C(  5  6  1)
  89-C(  6  6  1)  90-C(  7  6  1)  91-C(  0  7  1)  92-C(  1  7  1)
  93-C(  2  7  1)  94-C(  3  7  1)  95-C(  4  7  1)  96-C(  5  7  1)
  97-C(  6  7  1)  98-C(  7  7  1)  99-C(  0  0  2) 100-C(  1  0  2)
 101-C(  2  0  2) 102-C(  3  0  2) 103-C(  4  0  2) 104-C(  5  0  2)
 105-C(  6  0  2) 106-C(  7  0  2) 107-C(  0  1  2) 108-C(  1  1  2)
 109-C(  2  1  2) 110-C(  3  1  2) 111-C(  4  1  2) 112-C(  5  1  2)
 113-C(  6  1  2) 114-C(  7  1  2) 115-C(  0  2  2) 116-C(  1  2  2)
 117-C(  2  2  2) 118-C(  3  2  2) 119-C(  4  2  2) 120-C(  5  2  2)
 121-C(  6  2  2) 122-C(  7  2  2) 123-C(  0  3  2) 124-C(  1  3  2)
 125-C(  2  3  2) 126-C(  3  3  2) 127-C(  4  3  2) 128-C(  5  3  2)
 129-C(  6  3  2) 130-C(  7  3  2) 131-C(  0  4  2) 132-C(  1  4  2)
 133-C(  2  4  2) 134-C(  3  4  2) 135-C(  4  4  2) 136-C(  5  4  2)
 137-C(  6  4  2) 138-C(  7  4  2) 139-C(  0  5  2) 140-C(  1  5  2)
 141-C(  2  5  2) 142-C(  3  5  2) 143-C(  4  5  2) 144-C(  5  5  2)
 145-C(  6  5  2) 146-C(  7  5  2) 147-C(  0  6  2) 148-C(  1  6  2)
 149-C(  2  6  2) 150-C(  3  6  2) 151-C(  4  6  2) 152-C(  5  6  2)
 153-C(  6  6  2) 154-C(  7  6  2) 155-C(  0  7  2) 156-C(  1  7  2)
 157-C(  2  7  2) 158-C(  3  7  2) 159-C(  4  7  2) 160-C(  5  7  2)
 161-C(  6  7  2) 162-C(  7  7  2) 163-C(  0  0  3) 164-C(  1  0  3)
 165-C(  2  0  3) 166-C(  3  0  3) 167-C(  4  0  3) 168-C(  5  0  3)
 169-C(  6  0  3) 170-C(  7  0  3) 171-C(  0  1  3) 172-C(  1  1  3)
 173-C(  2  1  3) 174-C(  3  1  3) 175-C(  4  1  3) 176-C(  5  1  3)
 177-C(  6  1  3) 178-C(  7  1  3) 179-C(  0  2  3) 180-C(  1  2  3)
 181-C(  2  2  3) 182-C(  3  2  3) 183-C(  4  2  3) 184-C(  5  2  3)
 185-C(  6  2  3) 186-C(  7  2  3) 187-C(  0  3  3) 188-C(  1  3  3)
 189-C(  2  3  3) 190-C(  3  3  3) 191-C(  4  3  3) 192-C(  5  3  3)
 193-C(  6  3  3) 194-C(  7  3  3) 195-C(  0  4  3) 196-C(  1  4  3)
 197-C(  2  4  3) 198-C(  3  4  3) 199-C(  4  4  3) 200-C(  5  4  3)
 201-C(  6  4  3) 202-C(  7  4  3) 203-C(  0  5  3) 204-C(  1  5  3)
 205-C(  2  5  3) 206-C(  3  5  3) 207-C(  4  5  3) 208-C(  5  5  3)
 209-C(  6  5  3) 210-C(  7  5  3) 211-C(  0  6  3) 212-C(  1  6  3)
 213-C(  2  6  3) 214-C(  3  6  3) 215-C(  4  6  3) 216-C(  5  6  3)
 217-C(  6  6  3) 218-C(  7  6  3) 219-C(  0  7  3) 220-C(  1  7  3)
 221-C(  2  7  3) 222-C(  3  7  3) 223-C(  4  7  3) 224-C(  5  7  3)
 225-C(  6  7  3) 226-C(  7  7  3) 227-R(  0  0  4) 228-C(  1  0  4)
 229-C(  2  0  4) 230-C(  3  0  4) 231-R(  4  0  4) 232-C(  0  1  4)
 233-C(  1  1  4) 234-C(  2  1  4) 235-C(  3  1  4) 236-C(  4  1  4)
 237-C(  5  1  4) 238-C(  6  1  4) 239-C(  7  1  4) 240-C(  0  2  4)
 241-C(  1  2  4) 242-C(  2  2  4) 243-C(  3  2  4) 244-C(  4  2  4)
 245-C(  5  2  4) 246-C(  6  2  4) 247-C(  7  2  4) 248-C(  0  3  4)
 249-C(  1  3  4) 250-C(  2  3  4) 251-C(  3  3  4) 252-C(  4  3  4)
 253-C(  5  3  4) 254-C(  6  3  4) 255-C(  7  3  4) 256-R(  0  4  4)
 257-C(  1  4  4) 258-C(  2  4  4) 259-C(  3  4  4) 260-R(  4  4  4)

 DIRECT LATTICE VECTORS COMPON. (A.U.)     RECIP. LATTICE VECTORS COMPON. (A.U.) 
        X            Y            Z              X            Y            Z
    9.6693167    0.0000000    0.0000000      0.6498066    0.0000000    0.0000000
    0.0000000   16.7491348    0.0000000      0.0000000    0.3751349    0.0000000
    0.0000000    0.0000000   10.6492512      0.0000000    0.0000000    0.5900119

 DISK SPACE FOR EIGENVECTORS (FTN 10)   42467328 REALS

 SYMMETRY ADAPTION OF THE BLOCH FUNCTIONS DISABLED
 TTTTTTTTTTTTTTTTTTTTTTTTTTTTTT gordsh1     TELAPSE        1.36 TCPU        0.08

 DIMENSIONS  P(G)=  646448 F(G)=  109578 P(G),F(G) (IRR)  328504
 MAX G-VECTOR INDEX FOR 1- AND 2-ELECTRON INTEGRALS 125

 TTTTTTTTTTTTTTTTTTTTTTTTTTTTTT INPUT       TELAPSE        1.42 TCPU        0.12

 NEIGHBORS OF THE NON-EQUIVALENT ATOMS

 N = NUMBER OF NEIGHBORS AT DISTANCE R
    ATOM  N     R/ANG      R/AU   NEIGHBORS (ATOM LABELS AND CELL INDICES)
   1 SI   1     1.6177     3.0569   7 O    0 0 0
   1 SI   1     1.6178     3.0573  18 O    1 0 0
   1 SI   1     1.6180     3.0577   9 O    0 0 1
   1 SI   1     1.6181     3.0578  13 O    0 0 0
   1 SI   1     3.1738     5.9976   6 SI   0 0 0
   1 SI   1     3.1740     5.9981   4 SI   1 0 1

   2 SI   1     1.6175     3.0567  11 O    0 0 0
   2 SI   1     1.6176     3.0569  16 O    0 0 0
   2 SI   1     1.6179     3.0574  12 O    0 0 0
   2 SI   1     1.6179     3.0574   8 O    0 0 0
   2 SI   1     3.1738     5.9976   6 SI  -1 0 0
   2 SI   1     3.1739     5.9978   3 SI   0 0 1

   3 SI   1     1.6177     3.0570  14 O    0 0 0
   3 SI   1     1.6177     3.0571   8 O    1 0-1
   3 SI   1     1.6179     3.0574  10 O    0 0 0
   3 SI   1     1.6179     3.0575  11 O    0 0-1
   3 SI   1     3.1734     5.9969   5 SI   0 1 0
   3 SI   1     3.1739     5.9978   2 SI   0 0-1

   4 SI   1     1.6175     3.0566  15 O    0 0 0
   4 SI   1     1.6179     3.0573  17 O    0 0 0
   4 SI   1     1.6179     3.0573   9 O    0 0 0
   4 SI   1     1.6180     3.0577  18 O    0 0-1
   4 SI   1     3.1731     5.9963   5 SI   0 0 0
   4 SI   1     3.1740     5.9981   1 SI  -1 0-1

   5 SI   1     1.6174     3.0565  17 O    0 0 0
   5 SI   1     1.6177     3.0570  12 O    0-1 0
   5 SI   1     1.6179     3.0574  14 O    0-1 0
   5 SI   1     1.6180     3.0577   7 O    0 0 0
   5 SI   1     3.1731     5.9963   4 SI   0 0 0
   5 SI   1     3.1734     5.9969   3 SI   0-1 0

   6 SI   1     1.6175     3.0566  10 O    0 0 0
   6 SI   1     1.6177     3.0570  13 O    0 0 0
   6 SI   1     1.6179     3.0574  15 O    1 0 0
   6 SI   1     1.6181     3.0578  16 O    1 0 0
   6 SI   1     3.1738     5.9976   2 SI   1 0 0
   6 SI   1     3.1738     5.9976   1 SI   0 0 0

   7 O    1     1.6177     3.0569   1 SI   0 0 0
   7 O    1     1.6180     3.0577   5 SI   0 0 0
   7 O    1     2.6173     4.9460  17 O    0 0 0
   7 O    1     2.6183     4.9478   9 O    0 0 1
   7 O    1     2.6344     4.9783  12 O    0-1 0
   7 O    1     2.6348     4.9790  13 O    0 0 0

   8 O    1     1.6177     3.0571   3 SI  -1 0 1
   8 O    1     1.6179     3.0574   2 SI   0 0 0
   8 O    1     2.6177     4.9467  16 O    0 0 0
   8 O    1     2.6181     4.9476  10 O   -1 0 1
   8 O    1     2.6342     4.9780  11 O    0 0 0
   8 O    1     2.6344     4.9783  11 O   -1 0 0

   9 O    1     1.6179     3.0573   4 SI   0 0 0
   9 O    1     1.6180     3.0577   1 SI   0 0-1
   9 O    1     2.6179     4.9470  17 O    0 0 0
   9 O    1     2.6183     4.9478   7 O    0 0-1
   9 O    1     2.6344     4.9784  18 O    1 0-1
   9 O    1     2.6347     4.9789  18 O    0 0-1

  10 O    1     1.6175     3.0566   6 SI   0 0 0
  10 O    1     1.6179     3.0574   3 SI   0 0 0
  10 O    1     2.6174     4.9461  16 O    1 0 0
  10 O    1     2.6181     4.9476   8 O    1 0-1
  10 O    1     2.6346     4.9787  15 O    1 0 0
  10 O    1     2.6346     4.9788  14 O    0 0 0

  11 O    1     1.6175     3.0567   2 SI   0 0 0
  11 O    1     1.6179     3.0575   3 SI   0 0 1
  11 O    1     2.6175     4.9465  12 O    0 0 0
  11 O    1     2.6177     4.9468  14 O    0 0 1
  11 O    1     2.6342     4.9780   8 O    0 0 0
  11 O    1     2.6344     4.9783   8 O    1 0 0

  12 O    1     1.6177     3.0570   5 SI   0 1 0
  12 O    1     1.6179     3.0574   2 SI   0 0 0
  12 O    1     2.6175     4.9465  11 O    0 0 0
  12 O    1     2.6180     4.9473  14 O    0 0 0
  12 O    1     2.6342     4.9778  16 O    0 0 0
  12 O    1     2.6344     4.9783   7 O    0 1 0

  13 O    1     1.6177     3.0570   6 SI   0 0 0
  13 O    1     1.6181     3.0578   1 SI   0 0 0
  13 O    1     2.6178     4.9470  15 O    1 0 0
  13 O    1     2.6179     4.9471  18 O    1 0 0
  13 O    1     2.6344     4.9783  16 O    1 0 0
  13 O    1     2.6348     4.9790   7 O    0 0 0

  14 O    1     1.6177     3.0570   3 SI   0 0 0
  14 O    1     1.6179     3.0574   5 SI   0 1 0
  14 O    1     2.6177     4.9468  11 O    0 0-1
  14 O    1     2.6180     4.9473  12 O    0 0 0
  14 O    1     2.6345     4.9784  17 O    0 1 0
  14 O    1     2.6346     4.9788  10 O    0 0 0

  15 O    1     1.6175     3.0566   4 SI   0 0 0
  15 O    1     1.6179     3.0574   6 SI  -1 0 0
  15 O    1     2.6178     4.9469  18 O    0 0-1
  15 O    1     2.6178     4.9470  13 O   -1 0 0
  15 O    1     2.6346     4.9787  10 O   -1 0 0
  15 O    1     2.6347     4.9789  17 O    0 0 0

  16 O    1     1.6176     3.0569   2 SI   0 0 0
  16 O    1     1.6181     3.0578   6 SI  -1 0 0
  16 O    1     2.6174     4.9461  10 O   -1 0 0
  16 O    1     2.6177     4.9467   8 O    0 0 0
  16 O    1     2.6342     4.9778  12 O    0 0 0
  16 O    1     2.6344     4.9783  13 O   -1 0 0

  17 O    1     1.6174     3.0565   5 SI   0 0 0
  17 O    1     1.6179     3.0573   4 SI   0 0 0
  17 O    1     2.6173     4.9460   7 O    0 0 0
  17 O    1     2.6179     4.9470   9 O    0 0 0
  17 O    1     2.6345     4.9784  14 O    0-1 0
  17 O    1     2.6347     4.9789  15 O    0 0 0

  18 O    1     1.6178     3.0573   1 SI  -1 0 0
  18 O    1     1.6180     3.0577   4 SI   0 0 1
  18 O    1     2.6178     4.9469  15 O    0 0 1
  18 O    1     2.6179     4.9471  13 O   -1 0 0
  18 O    1     2.6344     4.9784   9 O   -1 0 1
  18 O    1     2.6347     4.9789   9 O    0 0 1


 SYMMETRY ALLOWED INTERNAL DEGREE(S) OF FREEDOM:  51
 TTTTTTTTTTTTTTTTTTTTTTTTTTTTTT SYMM        TELAPSE        1.42 TCPU        0.12
 TTTTTTTTTTTTTTTTTTTTTTTTTTTTTT INT_SCREEN  TELAPSE        1.43 TCPU        0.12
 INFORMATION **** EXCBUF **** EXCH. BIPO BUFFER: WORDS USED =      360000
 WARNING **** EXCBUF **** EXCH. BIPO BUFFER TOO SMALL - TO AVOID I/O SET EXCHSIZE =     2094804

 DFT PARAMETERS

     ATOM       ELECTRONS   NET CHARGE   R(ANGSTROM)
   1  14  SI     14.0000      0.0000     1.17000000
   7   8  O       8.0000      0.0000     0.74000000

 SIZE OF GRID=     557966
 TTTTTTTTTTTTTTTTTTTTTTTTTTTTTT MAKE_GRID2  TELAPSE        4.29 TCPU        2.63
 BECKE WEIGHT FUNCTION
 RADSAFE =     2.00
 TOLERANCES - DENSITY:10**- 6; POTENTIAL:10**- 9; GRID WGT:10**-14

 RADIAL INTEGRATION  - INTERVALS (POINTS,UPPER LIMIT):            1( 75,  4.0*R)

 ANGULAR INTEGRATION - INTERVALS (ACCURACY LEVEL [N. POINTS] UPPER LIMIT):
  1(  4[  86]   0.2)  2(  8[ 194]   0.5)  3( 12[ 350]   0.9)  4( 16[ 974]   3.5)
  5( 12[ 350]9999.0)
 TTTTTTTTTTTTTTTTTTTTTTTTTTTTTT INT_CALC    TELAPSE        4.37 TCPU        2.70
 EEEEEEEEEE INT_CALC TERMINATION  DATE 29 07 2015 TIME 08:54:57.6

 *******************************************************************************
 Created with astools                                                            
 CRYSTAL - SCF - TYPE OF CALCULATION :  RESTRICTED CLOSED SHELL
 *******************************************************************************

 CAPPA:IS1  8;IS2  8;IS3  8; K PTS MONK NET  260; SYMMOPS: K SPACE  2;G SPACE  1

 TTTTTTTTTTTTTTTTTTTTTTTTTTTTTT SDIK        TELAPSE        5.81 TCPU        3.62

 AAAAAAAAAAAAAAAAAAAAAAAAAAAAAAAAAAAAAAAAAAAAAAAAAAAAAAAAAAAAAAAAAAAAAAAAAAAAAAA
         ATOMIC WAVEFUNCTION(S)


 NUCLEAR CHARGE 14.0  SYMMETRY SPECIES            S    P
 N. ELECTRONS   14.0  NUMBER OF PRIMITIVE GTOS   19   11
                      NUMBER OF CONTRACTED GTOS   5    4
                      NUMBER OF CLOSED SHELLS     3    1
                      OPEN SHELL OCCUPATION       0    2

  ZNUC SCFIT  TOTAL HF ENERGY   KINETIC ENERGY   VIRIAL THEOREM ACCURACY
  14.0  10   -2.888293902E+02  2.890755179E+02 -1.999148570E+00  3.0E-06

 NUCLEAR CHARGE  8.0  SYMMETRY SPECIES            S    P
 N. ELECTRONS    8.0  NUMBER OF PRIMITIVE GTOS   14    6
                      NUMBER OF CONTRACTED GTOS   4    3
                      NUMBER OF CLOSED SHELLS     2    0
                      OPEN SHELL OCCUPATION       0    4

  ZNUC SCFIT  TOTAL HF ENERGY   KINETIC ENERGY   VIRIAL THEOREM ACCURACY
   8.0  13   -7.480020171E+01  7.461435896E+01 -2.002490710E+00  2.7E-06

 AAAAAAAAAAAAAAAAAAAAAAAAAAAAAAAAAAAAAAAAAAAAAAAAAAAAAAAAAAAAAAAAAAAAAAAAAAAAAAA

 CHARGE NORMALIZATION FACTOR   1.00000000
 TOTAL ATOMIC CHARGES:
  14.0000000  14.0000000  14.0000000  14.0000000  14.0000000  14.0000000
   8.0000000   8.0000000   8.0000000   8.0000000   8.0000000   8.0000000
   8.0000000   8.0000000   8.0000000   8.0000000   8.0000000   8.0000000
 TTTTTTTTTTTTTTTTTTTTTTTTTTTTTT MOQGAD      TELAPSE        5.92 TCPU        3.73
 TTTTTTTTTTTTTTTTTTTTTTTTTTTTTT SHELLX      TELAPSE       68.07 TCPU       60.58
 TTTTTTTTTTTTTTTTTTTTTTTTTTTTTT MONMO3      TELAPSE       85.87 TCPU       78.37
 NUMERICALLY INTEGRATED DENSITY    179.9999579648
 TTTTTTTTTTTTTTTTTTTTTTTTTTTTTT NUMDFT      TELAPSE       88.10 TCPU       80.60
 CYC   0 ETOT(AU) -2.644932934798E+03 DETOT -2.64E+03 tst  0.00E+00 PX  1.00E+00
 TTTTTTTTTTTTTTTTTTTTTTTTTTTTTT FDIK        TELAPSE      107.69 TCPU       99.25
 INSULATING STATE
 TOP OF VALENCE BANDS -    BAND     90; K  163; EIG -4.1314437E-01 AU
 TOP OF VALENCE BANDS -    BAND     90; K    1; EIG -4.1395718E-01 AU
 BOTTOM OF VIRTUAL BANDS - BAND     91; K    1; EIG -1.0201172E-01 AU
 TTTTTTTTTTTTTTTTTTTTTTTTTTTTTT PDIG        TELAPSE      109.87 TCPU      100.07
 CHARGE NORMALIZATION FACTOR   1.00000000
 TOTAL ATOMIC CHARGES:
  12.1387916  12.1391650  12.1388744  12.1390077  12.1390476  12.1389451
   8.9307186   8.9305551   8.9306646   8.9304149   8.9304744   8.9306322
   8.9305415   8.9303292   8.9304457   8.9305576   8.9301636   8.9306711
 TTTTTTTTTTTTTTTTTTTTTTTTTTTTTT MOQGAD      TELAPSE      109.89 TCPU      100.09
 TTTTTTTTTTTTTTTTTTTTTTTTTTTTTT SHELLX      TELAPSE      175.40 TCPU      159.62
 TTTTTTTTTTTTTTTTTTTTTTTTTTTTTT MONMO3      TELAPSE      194.84 TCPU      179.04
 NUMERICALLY INTEGRATED DENSITY    179.9999800616
 TTTTTTTTTTTTTTTTTTTTTTTTTTTTTT NUMDFT      TELAPSE      202.63 TCPU      186.83
 CYC   1 ETOT(AU) -2.639870172256E+03 DETOT  5.06E+00 tst  0.00E+00 PX  1.00E+00
 TTTTTTTTTTTTTTTTTTTTTTTTTTTTTT FDIK        TELAPSE      210.08 TCPU      192.58
 INSULATING STATE
 TOP OF VALENCE BANDS -    BAND     90; K  163; EIG -3.8791200E-01 AU
 TOP OF VALENCE BANDS -    BAND     90; K    1; EIG -3.8867594E-01 AU
 BOTTOM OF VIRTUAL BANDS - BAND     91; K    1; EIG -8.6002954E-02 AU
 TTTTTTTTTTTTTTTTTTTTTTTTTTTTTT PDIG        TELAPSE      211.77 TCPU      193.41
 CHARGE NORMALIZATION FACTOR   1.00000000
 TOTAL ATOMIC CHARGES:
  12.2188845  12.2191792  12.2189069  12.2190684  12.2191052  12.2190041
   8.8907035   8.8905515   8.8906349   8.8904035   8.8904704   8.8906226
   8.8904837   8.8902793   8.8904498   8.8905071   8.8901150   8.8906303
 TTTTTTTTTTTTTTTTTTTTTTTTTTTTTT MOQGAD      TELAPSE      211.79 TCPU      193.43
 TTTTTTTTTTTTTTTTTTTTTTTTTTTTTT SHELLX      TELAPSE      276.75 TCPU      252.65
 TTTTTTTTTTTTTTTTTTTTTTTTTTTTTT MONMO3      TELAPSE      296.89 TCPU      272.75
 NUMERICALLY INTEGRATED DENSITY    179.9999784802
 TTTTTTTTTTTTTTTTTTTTTTTTTTTTTT NUMDFT      TELAPSE      304.59 TCPU      280.45
 CYC   2 ETOT(AU) -2.640122794972E+03 DETOT -2.53E-01 tst  1.14E-04 PX  1.76E-02
 TTTTTTTTTTTTTTTTTTTTTTTTTTTTTT FDIK        TELAPSE      312.28 TCPU      286.41
 INSULATING STATE
 TOP OF VALENCE BANDS -    BAND     90; K  163; EIG -3.6724981E-01 AU
 TOP OF VALENCE BANDS -    BAND     90; K    1; EIG -3.6796750E-01 AU
 BOTTOM OF VIRTUAL BANDS - BAND     91; K    1; EIG -7.2212028E-02 AU
 TTTTTTTTTTTTTTTTTTTTTTTTTTTTTT PDIG        TELAPSE      313.85 TCPU      287.17
 CHARGE NORMALIZATION FACTOR   1.00000000
 TOTAL ATOMIC CHARGES:
  12.2862570  12.2864576  12.2862608  12.2864189  12.2864393  12.2863189
   8.8570634   8.8568977   8.8569383   8.8567673   8.8567970   8.8569919
   8.8568068   8.8565790   8.8568218   8.8568256   8.8564265   8.8569323
 TTTTTTTTTTTTTTTTTTTTTTTTTTTTTT MOQGAD      TELAPSE      313.87 TCPU      287.19
 TTTTTTTTTTTTTTTTTTTTTTTTTTTTTT SHELLX      TELAPSE      378.01 TCPU      346.57
 TTTTTTTTTTTTTTTTTTTTTTTTTTTTTT MONMO3      TELAPSE      398.39 TCPU      366.94
 NUMERICALLY INTEGRATED DENSITY    179.9999771107
 TTTTTTTTTTTTTTTTTTTTTTTTTTTTTT NUMDFT      TELAPSE      406.12 TCPU      374.66
 CYC   3 ETOT(AU) -2.640290886197E+03 DETOT -1.68E-01 tst  7.67E-05 PX  1.41E-02
 TTTTTTTTTTTTTTTTTTTTTTTTTTTTTT FDIK        TELAPSE      413.60 TCPU      380.16
 INSULATING STATE
 TOP OF VALENCE BANDS -    BAND     90; K  163; EIG -3.5029336E-01 AU
 TOP OF VALENCE BANDS -    BAND     90; K    1; EIG -3.5096808E-01 AU
 BOTTOM OF VIRTUAL BANDS - BAND     91; K    1; EIG -6.0302119E-02 AU
 TTTTTTTTTTTTTTTTTTTTTTTTTTTTTT PDIG        TELAPSE      415.10 TCPU      381.11
 CHARGE NORMALIZATION FACTOR   1.00000000
 TOTAL ATOMIC CHARGES:
  12.3427851  12.3429482  12.3428031  12.3429247  12.3429334  12.3428204
   8.8288303   8.8286387   8.8286894   8.8285133   8.8285424   8.8287559
   8.8285262   8.8282968   8.8286053   8.8285644   8.8281538   8.8286686
 TTTTTTTTTTTTTTTTTTTTTTTTTTTTTT MOQGAD      TELAPSE      415.12 TCPU      381.13
 TTTTTTTTTTTTTTTTTTTTTTTTTTTTTT SHELLX      TELAPSE      480.22 TCPU      440.39
 TTTTTTTTTTTTTTTTTTTTTTTTTTTTTT MONMO3      TELAPSE      500.24 TCPU      460.40
 NUMERICALLY INTEGRATED DENSITY    179.9999759393
 TTTTTTTTTTTTTTTTTTTTTTTTTTTTTT NUMDFT      TELAPSE      507.94 TCPU      468.10
 CYC   4 ETOT(AU) -2.640402399637E+03 DETOT -1.12E-01 tst  5.08E-05 PX  1.13E-02
 TTTTTTTTTTTTTTTTTTTTTTTTTTTTTT FDIK        TELAPSE      560.86 TCPU      478.23
 INSULATING STATE
 TOP OF VALENCE BANDS -    BAND     90; K  163; EIG -3.3634740E-01 AU
 TOP OF VALENCE BANDS -    BAND     90; K    1; EIG -3.3698275E-01 AU
 BOTTOM OF VIRTUAL BANDS - BAND     91; K    1; EIG -4.9989325E-02 AU
 TTTTTTTTTTTTTTTTTTTTTTTTTTTTTT PDIG        TELAPSE      562.90 TCPU      479.05
 CHARGE NORMALIZATION FACTOR   1.00000000
 TOTAL ATOMIC CHARGES:
  12.3897584  12.3898999  12.3897767  12.3899185  12.3899168  12.3897873
   8.8053567   8.8051644   8.8051986   8.8050363   8.8050583   8.8052838
   8.8050345   8.8047940   8.8051313   8.8050649   8.8046511   8.8051686
 TTTTTTTTTTTTTTTTTTTTTTTTTTTTTT MOQGAD      TELAPSE      562.93 TCPU      479.07
 TTTTTTTTTTTTTTTTTTTTTTTTTTTTTT SHELLX      TELAPSE      645.97 TCPU      538.37
 TTTTTTTTTTTTTTTTTTTTTTTTTTTTTT MONMO3      TELAPSE      689.41 TCPU      581.81
 NUMERICALLY INTEGRATED DENSITY    179.9999749482
 TTTTTTTTTTTTTTTTTTTTTTTTTTTTTT NUMDFT      TELAPSE      697.09 TCPU      589.49
 CYC   5 ETOT(AU) -2.640476251880E+03 DETOT -7.39E-02 tst  3.38E-05 PX  9.07E-03
 TTTTTTTTTTTTTTTTTTTTTTTTTTTTTT FDIK        TELAPSE      705.22 TCPU      595.00
 INSULATING STATE
 TOP OF VALENCE BANDS -    BAND     90; K  163; EIG -3.2484848E-01 AU
 TOP OF VALENCE BANDS -    BAND     90; K    1; EIG -3.2544809E-01 AU
 BOTTOM OF VIRTUAL BANDS - BAND     91; K    1; EIG -4.1030069E-02 AU
 TTTTTTTTTTTTTTTTTTTTTTTTTTTTTT PDIG        TELAPSE      707.02 TCPU      595.75
 CHARGE NORMALIZATION FACTOR   1.00000000
 TOTAL ATOMIC CHARGES:
  12.4286118  12.4287226  12.4286261  12.4287466  12.4287465  12.4286173
   8.7859466   8.7857426   8.7857830   8.7856237   8.7856428   8.7858742
   8.7856096   8.7853692   8.7857355   8.7856395   8.7852245   8.7857379
 TTTTTTTTTTTTTTTTTTTTTTTTTTTTTT MOQGAD      TELAPSE      707.04 TCPU      595.77
 TTTTTTTTTTTTTTTTTTTTTTTTTTTTTT SHELLX      TELAPSE      801.76 TCPU      655.03
 TTTTTTTTTTTTTTTTTTTTTTTTTTTTTT MONMO3      TELAPSE      825.05 TCPU      678.30
 NUMERICALLY INTEGRATED DENSITY    179.9999741175
 TTTTTTTTTTTTTTTTTTTTTTTTTTTTTT NUMDFT      TELAPSE      832.78 TCPU      686.03
 CYC   6 ETOT(AU) -2.640525089749E+03 DETOT -4.88E-02 tst  2.23E-05 PX  7.26E-03
 TTTTTTTTTTTTTTTTTTTTTTTTTTTTTT FDIK        TELAPSE      887.90 TCPU      695.70
 INSULATING STATE
 TOP OF VALENCE BANDS -    BAND     90; K  163; EIG -3.1534073E-01 AU
 TOP OF VALENCE BANDS -    BAND     90; K    1; EIG -3.1590812E-01 AU
 BOTTOM OF VIRTUAL BANDS - BAND     91; K    1; EIG -3.3218797E-02 AU
 TTTTTTTTTTTTTTTTTTTTTTTTTTTTTT PDIG        TELAPSE      890.76 TCPU      697.09
 CHARGE NORMALIZATION FACTOR   1.00000000
 TOTAL ATOMIC CHARGES:
  12.4606130  12.4606904  12.4606178  12.4607444  12.4607372  12.4605920
   8.7699541   8.7697480   8.7697810   8.7696389   8.7696472   8.7698905
   8.7696117   8.7693717   8.7697549   8.7696483   8.7692280   8.7697309
 TTTTTTTTTTTTTTTTTTTTTTTTTTTTTT MOQGAD      TELAPSE      890.78 TCPU      697.11
 TTTTTTTTTTTTTTTTTTTTTTTTTTTTTT SHELLX      TELAPSE      972.80 TCPU      756.34
 TTTTTTTTTTTTTTTTTTTTTTTTTTTTTT MONMO3      TELAPSE      998.44 TCPU      781.97
 NUMERICALLY INTEGRATED DENSITY    179.9999734258
 TTTTTTTTTTTTTTTTTTTTTTTTTTTTTT NUMDFT      TELAPSE     1006.14 TCPU      789.66
 CYC   7 ETOT(AU) -2.640557376377E+03 DETOT -3.23E-02 tst  1.48E-05 PX  5.81E-03
 TTTTTTTTTTTTTTTTTTTTTTTTTTTTTT FDIK        TELAPSE     1045.31 TCPU      796.96
 INSULATING STATE
 TOP OF VALENCE BANDS -    BAND     90; K  163; EIG -3.0745548E-01 AU
 TOP OF VALENCE BANDS -    BAND     90; K    1; EIG -3.0799393E-01 AU
 BOTTOM OF VIRTUAL BANDS - BAND     91; K    1; EIG -2.6382851E-02 AU
 TTTTTTTTTTTTTTTTTTTTTTTTTTTTTT PDIG        TELAPSE     1047.94 TCPU      798.35
 CHARGE NORMALIZATION FACTOR   1.00000000
 TOTAL ATOMIC CHARGES:
  12.4868438  12.4869076  12.4868615  12.4869766  12.4869657  12.4868172
   8.7568435   8.7566359   8.7566697   8.7565275   8.7565260   8.7567836
   8.7564941   8.7562512   8.7566519   8.7565293   8.7561067   8.7566083
 TTTTTTTTTTTTTTTTTTTTTTTTTTTTTT MOQGAD      TELAPSE     1047.95 TCPU      798.37
 TTTTTTTTTTTTTTTTTTTTTTTTTTTTTT SHELLX      TELAPSE     1132.69 TCPU      858.06
 TTTTTTTTTTTTTTTTTTTTTTTTTTTTTT MONMO3      TELAPSE     1182.19 TCPU      907.55
 NUMERICALLY INTEGRATED DENSITY    179.9999728527
 TTTTTTTTTTTTTTTTTTTTTTTTTTTTTT NUMDFT      TELAPSE     1189.88 TCPU      915.24
 CYC   8 ETOT(AU) -2.640578729090E+03 DETOT -2.14E-02 tst  9.73E-06 PX  4.64E-03
 TTTTTTTTTTTTTTTTTTTTTTTTTTTTTT FDIK        TELAPSE     1202.66 TCPU      924.22
 INSULATING STATE
 TOP OF VALENCE BANDS -    BAND     90; K  163; EIG -3.0089438E-01 AU
 TOP OF VALENCE BANDS -    BAND     90; K    1; EIG -3.0140688E-01 AU
 BOTTOM OF VIRTUAL BANDS - BAND     91; K    1; EIG -2.0377201E-02 AU
 TTTTTTTTTTTTTTTTTTTTTTTTTTTTTT PDIG        TELAPSE     1205.10 TCPU      925.38
 CHARGE NORMALIZATION FACTOR   1.00000000
 TOTAL ATOMIC CHARGES:
  12.5083163  12.5083420  12.5083278  12.5084323  12.5084238  12.5082690
   8.7461202   8.7459090   8.7459388   8.7458009   8.7457994   8.7460634
   8.7457609   8.7455170   8.7459343   8.7458028   8.7453720   8.7458700
 TTTTTTTTTTTTTTTTTTTTTTTTTTTTTT MOQGAD      TELAPSE     1205.12 TCPU      925.40
 TTTTTTTTTTTTTTTTTTTTTTTTTTTTTT SHELLX      TELAPSE     1287.24 TCPU      984.56
 TTTTTTTTTTTTTTTTTTTTTTTTTTTTTT MONMO3      TELAPSE     1314.50 TCPU     1011.66
 NUMERICALLY INTEGRATED DENSITY    179.9999723798
 TTTTTTTTTTTTTTTTTTTTTTTTTTTTTT NUMDFT      TELAPSE     1322.20 TCPU     1019.35
 CYC   9 ETOT(AU) -2.640592870560E+03 DETOT -1.41E-02 tst  6.41E-06 PX  3.71E-03
 TTTTTTTTTTTTTTTTTTTTTTTTTTTTTT FDIK        TELAPSE     1358.61 TCPU     1025.26
 INSULATING STATE
 TOP OF VALENCE BANDS -    BAND     90; K  163; EIG -2.9541577E-01 AU
 TOP OF VALENCE BANDS -    BAND     90; K    1; EIG -2.9590506E-01 AU
 BOTTOM OF VIRTUAL BANDS - BAND     91; K    1; EIG -1.5080410E-02 AU
 TTTTTTTTTTTTTTTTTTTTTTTTTTTTTT PDIG        TELAPSE     1360.88 TCPU     1026.99
 CHARGE NORMALIZATION FACTOR   1.00000000
 TOTAL ATOMIC CHARGES:
  12.5258212  12.5258373  12.5258340  12.5259399  12.5259300  12.5257692
   8.7373719   8.7371572   8.7371863   8.7370547   8.7370470   8.7373170
   8.7370051   8.7367594   8.7371937   8.7370504   8.7366130   8.7371127
 TTTTTTTTTTTTTTTTTTTTTTTTTTTTTT MOQGAD      TELAPSE     1360.90 TCPU     1027.01
 TTTTTTTTTTTTTTTTTTTTTTTTTTTTTT SHELLX      TELAPSE     1448.33 TCPU     1086.43
 TTTTTTTTTTTTTTTTTTTTTTTTTTTTTT MONMO3      TELAPSE     1465.63 TCPU     1103.73
 NUMERICALLY INTEGRATED DENSITY    179.9999719904
 TTTTTTTTTTTTTTTTTTTTTTTTTTTTTT NUMDFT      TELAPSE     1473.34 TCPU     1111.43
 CYC  10 ETOT(AU) -2.640602254630E+03 DETOT -9.38E-03 tst  4.21E-06 PX  2.96E-03
 TTTTTTTTTTTTTTTTTTTTTTTTTTTTTT FDIK        TELAPSE     1540.43 TCPU     1128.02
 INSULATING STATE
 TOP OF VALENCE BANDS -    BAND     90; K  163; EIG -2.9082391E-01 AU
 TOP OF VALENCE BANDS -    BAND     90; K    1; EIG -2.9129243E-01 AU
 BOTTOM OF VIRTUAL BANDS - BAND     91; K    1; EIG -1.0390925E-02 AU
 TTTTTTTTTTTTTTTTTTTTTTTTTTTTTT PDIG        TELAPSE     1553.13 TCPU     1128.82
 CHARGE NORMALIZATION FACTOR   1.00000000
 TOTAL ATOMIC CHARGES:
  12.5400728  12.5400704  12.5400866  12.5401909  12.5401742  12.5400109
   8.7302540   8.7300368   8.7300616   8.7299352   8.7299226   8.7301998
   8.7298805   8.7296331   8.7300782   8.7299248   8.7294851   8.7299824
 TTTTTTTTTTTTTTTTTTTTTTTTTTTTTT MOQGAD      TELAPSE     1553.15 TCPU     1128.84
 TTTTTTTTTTTTTTTTTTTTTTTTTTTTTT SHELLX      TELAPSE     1645.89 TCPU     1189.22
 TTTTTTTTTTTTTTTTTTTTTTTTTTTTTT MONMO3      TELAPSE     1681.63 TCPU     1224.96
 NUMERICALLY INTEGRATED DENSITY    179.9999716705
 TTTTTTTTTTTTTTTTTTTTTTTTTTTTTT NUMDFT      TELAPSE     1689.34 TCPU     1232.66
 CYC  11 ETOT(AU) -2.640608501146E+03 DETOT -6.25E-03 tst  2.76E-06 PX  2.36E-03
 TTTTTTTTTTTTTTTTTTTTTTTTTTTTTT FDIK        TELAPSE     1698.22 TCPU     1239.87
 INSULATING STATE
 TOP OF VALENCE BANDS -    BAND     90; K  163; EIG -2.8696002E-01 AU
 TOP OF VALENCE BANDS -    BAND     90; K    1; EIG -2.8740994E-01 AU
 BOTTOM OF VIRTUAL BANDS - BAND     91; K    1; EIG -6.2237090E-03 AU
 TTTTTTTTTTTTTTTTTTTTTTTTTTTTTT PDIG        TELAPSE     1703.84 TCPU     1241.20
 CHARGE NORMALIZATION FACTOR   1.00000000
 TOTAL ATOMIC CHARGES:
  12.5516479  12.5516313  12.5516612  12.5517615  12.5517481  12.5515798
   8.7244737   8.7242523   8.7242767   8.7241526   8.7241372   8.7244193
   8.7240902   8.7238431   8.7243008   8.7241377   8.7236942   8.7241923
 TTTTTTTTTTTTTTTTTTTTTTTTTTTTTT MOQGAD      TELAPSE     1703.85 TCPU     1241.22
 TTTTTTTTTTTTTTTTTTTTTTTTTTTTTT SHELLX      TELAPSE     1790.15 TCPU     1300.21
 TTTTTTTTTTTTTTTTTTTTTTTTTTTTTT MONMO3      TELAPSE     1826.69 TCPU     1336.71
 NUMERICALLY INTEGRATED DENSITY    179.9999714079
 TTTTTTTTTTTTTTTTTTTTTTTTTTTTTT NUMDFT      TELAPSE     1834.39 TCPU     1344.40
 CYC  12 ETOT(AU) -2.640612675109E+03 DETOT -4.17E-03 tst  1.78E-06 PX  1.92E-03
 TTTTTTTTTTTTTTTTTTTTTTTTTTTTTT FDIK        TELAPSE     1860.78 TCPU     1350.14
 INSULATING STATE
 TOP OF VALENCE BANDS -    BAND     90; K  163; EIG -2.8369515E-01 AU
 TOP OF VALENCE BANDS -    BAND     90; K    1; EIG -2.8412842E-01 AU
 BOTTOM OF VIRTUAL BANDS - BAND     91; K    1; EIG -2.5074355E-03 AU
 TTTTTTTTTTTTTTTTTTTTTTTTTTTTTT PDIG        TELAPSE     1863.16 TCPU     1351.82
 CHARGE NORMALIZATION FACTOR   1.00000000
 TOTAL ATOMIC CHARGES:
  12.5610352  12.5609984  12.5610410  12.5611439  12.5611263  12.5609553
   8.7197866   8.7195664   8.7195850   8.7194671   8.7194474   8.7197364
   8.7193974   8.7191503   8.7196179   8.7194477   8.7189988   8.7194987
 TTTTTTTTTTTTTTTTTTTTTTTTTTTTTT MOQGAD      TELAPSE     1863.18 TCPU     1351.84
 TTTTTTTTTTTTTTTTTTTTTTTTTTTTTT SHELLX      TELAPSE     1950.87 TCPU     1411.09
 TTTTTTTTTTTTTTTTTTTTTTTTTTTTTT MONMO3      TELAPSE     1986.88 TCPU     1447.09
 NUMERICALLY INTEGRATED DENSITY    179.9999711925
 TTTTTTTTTTTTTTTTTTTTTTTTTTTTTT NUMDFT      TELAPSE     1994.58 TCPU     1454.79
 CYC  13 ETOT(AU) -2.640615478800E+03 DETOT -2.80E-03 tst  1.19E-06 PX  1.60E-03
 TTTTTTTTTTTTTTTTTTTTTTTTTTTTTT FDIK        TELAPSE     2017.88 TCPU     1467.32
 INSULATING STATE
 TOP OF VALENCE BANDS -    BAND     90; K  163; EIG -2.8092450E-01 AU
 TOP OF VALENCE BANDS -    BAND     90; K    1; EIG -2.8134282E-01 AU
 BOTTOM OF VIRTUAL BANDS - BAND     91; K    1; EIG  8.1782042E-04 AU
 TTTTTTTTTTTTTTTTTTTTTTTTTTTTTT PDIG        TELAPSE     2020.11 TCPU     1468.04
 CHARGE NORMALIZATION FACTOR   1.00000000
 TOTAL ATOMIC CHARGES:
  12.5686195  12.5685772  12.5686265  12.5687319  12.5687128  12.5685396
   8.7159996   8.7157755   8.7157933   8.7156780   8.7156551   8.7159489
   8.7156019   8.7153533   8.7158313   8.7156518   8.7152007   8.7157030
 TTTTTTTTTTTTTTTTTTTTTTTTTTTTTT MOQGAD      TELAPSE     2020.13 TCPU     1468.06
 TTTTTTTTTTTTTTTTTTTTTTTTTTTTTT SHELLX      TELAPSE     2103.60 TCPU     1527.18
 TTTTTTTTTTTTTTTTTTTTTTTTTTTTTT MONMO3      TELAPSE     2124.92 TCPU     1548.47
 NUMERICALLY INTEGRATED DENSITY    179.9999710157
 TTTTTTTTTTTTTTTTTTTTTTTTTTTTTT NUMDFT      TELAPSE     2132.61 TCPU     1556.15
 CYC  14 ETOT(AU) -2.640617373803E+03 DETOT -1.90E-03 tst  7.98E-07 PX  1.33E-03
 TTTTTTTTTTTTTTTTTTTTTTTTTTTTTT FDIK        TELAPSE     2162.93 TCPU     1566.70
 INSULATING STATE
 TOP OF VALENCE BANDS -    BAND     90; K  163; EIG -2.7856273E-01 AU
 TOP OF VALENCE BANDS -    BAND     90; K    1; EIG -2.7896762E-01 AU
 BOTTOM OF VIRTUAL BANDS - BAND     91; K    1; EIG  3.8025796E-03 AU
 TTTTTTTTTTTTTTTTTTTTTTTTTTTTTT PDIG        TELAPSE     2165.42 TCPU     1567.66
 CHARGE NORMALIZATION FACTOR   1.00000000
 TOTAL ATOMIC CHARGES:
  12.5747442  12.5746891  12.5747499  12.5748548  12.5748371  12.5746587
   8.7129414   8.7127172   8.7127315   8.7126200   8.7125950   8.7128926
   8.7125385   8.7122882   8.7127769   8.7125918   8.7121349   8.7126382
 TTTTTTTTTTTTTTTTTTTTTTTTTTTTTT MOQGAD      TELAPSE     2165.44 TCPU     1567.68
 TTTTTTTTTTTTTTTTTTTTTTTTTTTTTT SHELLX      TELAPSE     2276.99 TCPU     1626.82
 TTTTTTTTTTTTTTTTTTTTTTTTTTTTTT MONMO3      TELAPSE     2293.92 TCPU     1643.75
 NUMERICALLY INTEGRATED DENSITY    179.9999708705
 TTTTTTTTTTTTTTTTTTTTTTTTTTTTTT NUMDFT      TELAPSE     2301.62 TCPU     1651.44
 CYC  15 ETOT(AU) -2.640618664311E+03 DETOT -1.29E-03 tst  5.36E-07 PX  1.11E-03
 TTTTTTTTTTTTTTTTTTTTTTTTTTTTTT FDIK        TELAPSE     2343.11 TCPU     1661.64
 INSULATING STATE
 TOP OF VALENCE BANDS -    BAND     90; K  163; EIG -2.7654026E-01 AU
 TOP OF VALENCE BANDS -    BAND     90; K    1; EIG -2.7693308E-01 AU
 BOTTOM OF VIRTUAL BANDS - BAND     91; K    1; EIG  6.4895056E-03 AU
 TTTTTTTTTTTTTTTTTTTTTTTTTTTTTT PDIG        TELAPSE     2345.31 TCPU     1662.31
 CHARGE NORMALIZATION FACTOR   1.00000000
 TOTAL ATOMIC CHARGES:
  12.5796718  12.5796079  12.5796760  12.5797806  12.5797615  12.5795804
   8.7104820   8.7102559   8.7102688   8.7101609   8.7101318   8.7104350
   8.7100739   8.7098227   8.7103206   8.7101278   8.7096687   8.7101734
 TTTTTTTTTTTTTTTTTTTTTTTTTTTTTT MOQGAD      TELAPSE     2345.33 TCPU     1662.33
 TTTTTTTTTTTTTTTTTTTTTTTTTTTTTT SHELLX      TELAPSE     2438.78 TCPU     1721.84
 TTTTTTTTTTTTTTTTTTTTTTTTTTTTTT MONMO3      TELAPSE     2471.55 TCPU     1754.59
 NUMERICALLY INTEGRATED DENSITY    179.9999707511
 TTTTTTTTTTTTTTTTTTTTTTTTTTTTTT NUMDFT      TELAPSE     2479.25 TCPU     1762.29
 CYC  16 ETOT(AU) -2.640619551658E+03 DETOT -8.87E-04 tst  3.64E-07 PX  9.22E-04
 TTTTTTTTTTTTTTTTTTTTTTTTTTTTTT FDIK        TELAPSE     2528.87 TCPU     1770.09
 INSULATING STATE
 TOP OF VALENCE BANDS -    BAND     90; K  163; EIG -2.7480029E-01 AU
 TOP OF VALENCE BANDS -    BAND     90; K    1; EIG -2.7518222E-01 AU
 BOTTOM OF VIRTUAL BANDS - BAND     91; K    1; EIG  8.9148880E-03 AU
 TTTTTTTTTTTTTTTTTTTTTTTTTTTTTT PDIG        TELAPSE     2531.30 TCPU     1770.84
 CHARGE NORMALIZATION FACTOR   1.00000000
 TOTAL ATOMIC CHARGES:
  12.5836275  12.5835560  12.5836302  12.5837369  12.5837154  12.5835335
   8.7085085   8.7082805   8.7082915   8.7081863   8.7081550   8.7084619
   8.7080944   8.7078431   8.7083482   8.7081495   8.7076888   8.7081929
 TTTTTTTTTTTTTTTTTTTTTTTTTTTTTT MOQGAD      TELAPSE     2531.32 TCPU     1770.86
 TTTTTTTTTTTTTTTTTTTTTTTTTTTTTT SHELLX      TELAPSE     2633.04 TCPU     1829.92
 TTTTTTTTTTTTTTTTTTTTTTTTTTTTTT MONMO3      TELAPSE     2671.81 TCPU     1868.68
 NUMERICALLY INTEGRATED DENSITY    179.9999706528
 TTTTTTTTTTTTTTTTTTTTTTTTTTTTTT NUMDFT      TELAPSE     2679.49 TCPU     1876.36
 CYC  17 ETOT(AU) -2.640620167999E+03 DETOT -6.16E-04 tst  2.53E-07 PX  7.69E-04
 TTTTTTTTTTTTTTTTTTTTTTTTTTTTTT FDIK        TELAPSE     2748.51 TCPU     1939.20
 INSULATING STATE
 TOP OF VALENCE BANDS -    BAND     90; K  163; EIG -2.7329633E-01 AU
 TOP OF VALENCE BANDS -    BAND     90; K    1; EIG -2.7366843E-01 AU
 BOTTOM OF VIRTUAL BANDS - BAND     91; K    1; EIG  1.1109555E-02 AU
 TTTTTTTTTTTTTTTTTTTTTTTTTTTTTT PDIG        TELAPSE     2750.83 TCPU     1939.95
 CHARGE NORMALIZATION FACTOR   1.00000000
 TOTAL ATOMIC CHARGES:
  12.5867883  12.5867120  12.5867927  12.5868970  12.5868784  12.5866912
   8.7069307   8.7067013   8.7067120   8.7066081   8.7065742   8.7068842
   8.7065136   8.7062597   8.7067730   8.7065678   8.7061045   8.7066113
 TTTTTTTTTTTTTTTTTTTTTTTTTTTTTT MOQGAD      TELAPSE     2750.85 TCPU     1939.97
 TTTTTTTTTTTTTTTTTTTTTTTTTTTTTT SHELLX      TELAPSE     2851.12 TCPU     1998.98
 TTTTTTTTTTTTTTTTTTTTTTTTTTTTTT MONMO3      TELAPSE     2877.16 TCPU     2024.90
 NUMERICALLY INTEGRATED DENSITY    179.9999705717
 TTTTTTTTTTTTTTTTTTTTTTTTTTTTTT NUMDFT      TELAPSE     2884.86 TCPU     2032.59
 CYC  18 ETOT(AU) -2.640620601389E+03 DETOT -4.33E-04 tst  1.77E-07 PX  6.44E-04
 TTTTTTTTTTTTTTTTTTTTTTTTTTTTTT FDIK        TELAPSE     2935.34 TCPU     2043.74
 INSULATING STATE
 TOP OF VALENCE BANDS -    BAND     90; K  163; EIG -2.7199030E-01 AU
 TOP OF VALENCE BANDS -    BAND     90; K    1; EIG -2.7235353E-01 AU
 BOTTOM OF VIRTUAL BANDS - BAND     91; K    1; EIG  1.3099913E-02 AU
 TTTTTTTTTTTTTTTTTTTTTTTTTTTTTT PDIG        TELAPSE     2938.05 TCPU     2044.38
 CHARGE NORMALIZATION FACTOR   1.00000000
 TOTAL ATOMIC CHARGES:
  12.5893058  12.5892248  12.5893092  12.5894153  12.5893952  12.5892062
   8.7056750   8.7054442   8.7054529   8.7053515   8.7053159   8.7056288
   8.7052538   8.7049995   8.7055187   8.7053089   8.7048439   8.7053504
 TTTTTTTTTTTTTTTTTTTTTTTTTTTTTT MOQGAD      TELAPSE     2938.07 TCPU     2044.40
 TTTTTTTTTTTTTTTTTTTTTTTTTTTTTT SHELLX      TELAPSE     3024.64 TCPU     2103.68
 TTTTTTTTTTTTTTTTTTTTTTTTTTTTTT MONMO3      TELAPSE     3065.55 TCPU     2144.57
 NUMERICALLY INTEGRATED DENSITY    179.9999705046
 TTTTTTTTTTTTTTTTTTTTTTTTTTTTTT NUMDFT      TELAPSE     3073.25 TCPU     2152.27
 CYC  19 ETOT(AU) -2.640620910220E+03 DETOT -3.09E-04 tst  1.25E-07 PX  5.39E-04
 TTTTTTTTTTTTTTTTTTTTTTTTTTTTTT FDIK        TELAPSE     3122.03 TCPU     2162.94
 INSULATING STATE
 TOP OF VALENCE BANDS -    BAND     90; K  163; EIG -2.7085091E-01 AU
 TOP OF VALENCE BANDS -    BAND     90; K    1; EIG -2.7120612E-01 AU
 BOTTOM OF VIRTUAL BANDS - BAND     91; K    1; EIG  1.4908620E-02 AU
 TTTTTTTTTTTTTTTTTTTTTTTTTTTTTT PDIG        TELAPSE     3123.98 TCPU     2163.61
 CHARGE NORMALIZATION FACTOR   1.00000000
 TOTAL ATOMIC CHARGES:
  12.5913002  12.5912145  12.5913033  12.5914094  12.5913900  12.5911986
   8.7046806   8.7044489   8.7044559   8.7043569   8.7043190   8.7046348
   8.7042556   8.7040000   8.7045257   8.7043105   8.7038442   8.7043520
 TTTTTTTTTTTTTTTTTTTTTTTTTTTTTT MOQGAD      TELAPSE     3124.00 TCPU     2163.63
 TTTTTTTTTTTTTTTTTTTTTTTTTTTTTT SHELLX      TELAPSE     3261.81 TCPU     2222.84
 TTTTTTTTTTTTTTTTTTTTTTTTTTTTTT MONMO3      TELAPSE     3277.41 TCPU     2238.43
 NUMERICALLY INTEGRATED DENSITY    179.9999704489
 TTTTTTTTTTTTTTTTTTTTTTTTTTTTTT NUMDFT      TELAPSE     3285.12 TCPU     2246.14
 CYC  20 ETOT(AU) -2.640621133632E+03 DETOT -2.23E-04 tst  8.83E-08 PX  4.53E-04
 MODIFIED BROYDEN: MIX%=  90 W0=  1.000000000000E-04 W=  2.537009872376E+00
 TTTTTTTTTTTTTTTTTTTTTTTTTTTTTT FDIK        TELAPSE     3608.42 TCPU     2255.58
 INSULATING STATE
 TOP OF VALENCE BANDS -    BAND     90; K  163; EIG -2.6449794E-01 AU
 TOP OF VALENCE BANDS -    BAND     90; K    1; EIG -2.6480506E-01 AU
 BOTTOM OF VIRTUAL BANDS - BAND     91; K    1; EIG  2.5761074E-02 AU
 TTTTTTTTTTTTTTTTTTTTTTTTTTTTTT PDIG        TELAPSE     3613.65 TCPU     2258.42
 CHARGE NORMALIZATION FACTOR   1.00000000
 TOTAL ATOMIC CHARGES:
  12.6001914  12.6000904  12.6001944  12.6003052  12.6002706  12.6000781
   8.7002531   8.7000125   8.7000066   8.6999203   8.6998740   8.7002082
   8.6998021   8.6995454   8.7001030   8.6998599   8.6993909   8.6998938
 TTTTTTTTTTTTTTTTTTTTTTTTTTTTTT MOQGAD      TELAPSE     3613.67 TCPU     2258.44
 TTTTTTTTTTTTTTTTTTTTTTTTTTTTTT SHELLX      TELAPSE     3677.62 TCPU     2317.77
 TTTTTTTTTTTTTTTTTTTTTTTTTTTTTT MONMO3      TELAPSE     3697.74 TCPU     2337.89
 NUMERICALLY INTEGRATED DENSITY    179.9999701691
 TTTTTTTTTTTTTTTTTTTTTTTTTTTTTT NUMDFT      TELAPSE     3705.44 TCPU     2345.58
 CYC  21 ETOT(AU) -2.640621775709E+03 DETOT -6.42E-04 tst  2.38E-06 PX  2.35E-03
 MODIFIED BROYDEN: MIX%=  90 W0=  1.000000000000E-04 W=  6.045999862847E+00
 TTTTTTTTTTTTTTTTTTTTTTTTTTTTTT FDIK        TELAPSE     3714.41 TCPU     2351.60
 INSULATING STATE
 TOP OF VALENCE BANDS -    BAND     90; K  163; EIG -2.6439119E-01 AU
 TOP OF VALENCE BANDS -    BAND     90; K    1; EIG -2.6470017E-01 AU
 BOTTOM OF VIRTUAL BANDS - BAND     91; K    1; EIG  2.5104712E-02 AU
 TTTTTTTTTTTTTTTTTTTTTTTTTTTTTT PDIG        TELAPSE     3716.01 TCPU     2352.66
 CHARGE NORMALIZATION FACTOR   1.00000000
 TOTAL ATOMIC CHARGES:
  12.6029533  12.6028399  12.6029526  12.6030627  12.6030435  12.6028376
   8.6988703   8.6986330   8.6986299   8.6985445   8.6984955   8.6988270
   8.6984222   8.6981616   8.6987255   8.6984797   8.6980045   8.6985165
 TTTTTTTTTTTTTTTTTTTTTTTTTTTTTT MOQGAD      TELAPSE     3716.03 TCPU     2352.68
 TTTTTTTTTTTTTTTTTTTTTTTTTTTTTT SHELLX      TELAPSE     3780.82 TCPU     2412.16
 TTTTTTTTTTTTTTTTTTTTTTTTTTTTTT MONMO3      TELAPSE     3801.38 TCPU     2432.68
 NUMERICALLY INTEGRATED DENSITY    179.9999701304
 TTTTTTTTTTTTTTTTTTTTTTTTTTTTTT NUMDFT      TELAPSE     3809.09 TCPU     2440.37
 CYC  22 ETOT(AU) -2.640621731766E+03 DETOT  4.39E-05 tst  1.46E-07 PX  5.69E-04
 MODIFIED BROYDEN: MIX%=  90 W0=  1.000000000000E-04 W=  5.812259764305E+00
 TTTTTTTTTTTTTTTTTTTTTTTTTTTTTT FDIK        TELAPSE     3852.09 TCPU     2450.53
 INSULATING STATE
 TOP OF VALENCE BANDS -    BAND     90; K  163; EIG -2.6427976E-01 AU
 TOP OF VALENCE BANDS -    BAND     90; K    1; EIG -2.6458786E-01 AU
 BOTTOM OF VIRTUAL BANDS - BAND     91; K    1; EIG  2.5364304E-02 AU
 TTTTTTTTTTTTTTTTTTTTTTTTTTTTTT PDIG        TELAPSE     3854.74 TCPU     2451.27
 CHARGE NORMALIZATION FACTOR   1.00000000
 TOTAL ATOMIC CHARGES:
  12.6026904  12.6025758  12.6026884  12.6027989  12.6027799  12.6025730
   8.6990018   8.6987639   8.6987626   8.6986768   8.6986267   8.6989585
   8.6985548   8.6982952   8.6988556   8.6986128   8.6981358   8.6986489
 TTTTTTTTTTTTTTTTTTTTTTTTTTTTTT MOQGAD      TELAPSE     3854.76 TCPU     2451.29
 TTTTTTTTTTTTTTTTTTTTTTTTTTTTTT SHELLX      TELAPSE     3942.38 TCPU     2510.25
 TTTTTTTTTTTTTTTTTTTTTTTTTTTTTT MONMO3      TELAPSE     3957.17 TCPU     2525.03
 NUMERICALLY INTEGRATED DENSITY    179.9999701280
 TTTTTTTTTTTTTTTTTTTTTTTTTTTTTT NUMDFT      TELAPSE     3964.87 TCPU     2532.73
 CYC  23 ETOT(AU) -2.640621738256E+03 DETOT -6.49E-06 tst  3.41E-09 PX  9.41E-05
 MODIFIED BROYDEN: MIX%=  90 W0=  1.000000000000E-04 W=  5.981634081229E+00
 TTTTTTTTTTTTTTTTTTTTTTTTTTTTTT FDIK        TELAPSE     4004.73 TCPU     2543.33
 INSULATING STATE
 TOP OF VALENCE BANDS -    BAND     90; K  163; EIG -2.6430534E-01 AU
 TOP OF VALENCE BANDS -    BAND     90; K    1; EIG -2.6461370E-01 AU
 BOTTOM OF VIRTUAL BANDS - BAND     91; K    1; EIG  2.5294922E-02 AU
 TTTTTTTTTTTTTTTTTTTTTTTTTTTTTT PDIG        TELAPSE     4007.08 TCPU     2544.36
 CHARGE NORMALIZATION FACTOR   1.00000000
 TOTAL ATOMIC CHARGES:
  12.6027549  12.6026396  12.6027533  12.6028632  12.6028446  12.6026375
   8.6989695   8.6987316   8.6987305   8.6986445   8.6985945   8.6989263
   8.6985227   8.6982630   8.6988232   8.6985809   8.6981035   8.6986170
 TTTTTTTTTTTTTTTTTTTTTTTTTTTTTT MOQGAD      TELAPSE     4007.10 TCPU     2544.38
 TTTTTTTTTTTTTTTTTTTTTTTTTTTTTT SHELLX      TELAPSE     4087.75 TCPU     2603.59
 TTTTTTTTTTTTTTTTTTTTTTTTTTTTTT MONMO3      TELAPSE     4105.30 TCPU     2621.14
 NUMERICALLY INTEGRATED DENSITY    179.9999701281
 TTTTTTTTTTTTTTTTTTTTTTTTTTTTTT NUMDFT      TELAPSE     4113.01 TCPU     2628.85
 CYC  24 ETOT(AU) -2.640621736095E+03 DETOT  2.16E-06 tst  3.06E-10 PX  2.65E-05
 MODIFIED BROYDEN: MIX%=  90 W0=  1.000000000000E-04 W=  5.939193018185E+00
 TTTTTTTTTTTTTTTTTTTTTTTTTTTTTT FDIK        TELAPSE     4154.96 TCPU     2638.81
 INSULATING STATE
 TOP OF VALENCE BANDS -    BAND     90; K  163; EIG -2.6427537E-01 AU
 TOP OF VALENCE BANDS -    BAND     90; K    1; EIG -2.6458342E-01 AU
 BOTTOM OF VIRTUAL BANDS - BAND     91; K    1; EIG  2.5376035E-02 AU
 TTTTTTTTTTTTTTTTTTTTTTTTTTTTTT PDIG        TELAPSE     4159.03 TCPU     2639.96
 CHARGE NORMALIZATION FACTOR   1.00000000
 TOTAL ATOMIC CHARGES:
  12.6026780  12.6025628  12.6026765  12.6027862  12.6027678  12.6025606
   8.6990080   8.6987699   8.6987690   8.6986829   8.6986328   8.6989648
   8.6985611   8.6983014   8.6988617   8.6986193   8.6981418   8.6986554
 TTTTTTTTTTTTTTTTTTTTTTTTTTTTTT MOQGAD      TELAPSE     4159.05 TCPU     2639.98
 TTTTTTTTTTTTTTTTTTTTTTTTTTTTTT SHELLX      TELAPSE     4265.28 TCPU     2698.92
 TTTTTTTTTTTTTTTTTTTTTTTTTTTTTT MONMO3      TELAPSE     4279.58 TCPU     2713.21
 NUMERICALLY INTEGRATED DENSITY    179.9999701279
 TTTTTTTTTTTTTTTTTTTTTTTTTTTTTT NUMDFT      TELAPSE     4287.27 TCPU     2720.90
 CYC  25 ETOT(AU) -2.640621738626E+03 DETOT -2.53E-06 tst  4.14E-10 PX  3.31E-05
 MODIFIED BROYDEN: MIX%=  90 W0=  1.000000000000E-04 W=  5.988975030717E+00
 TTTTTTTTTTTTTTTTTTTTTTTTTTTTTT FDIK        TELAPSE     4338.36 TCPU     2729.32
 INSULATING STATE
 TOP OF VALENCE BANDS -    BAND     90; K  163; EIG -2.6424734E-01 AU
 TOP OF VALENCE BANDS -    BAND     90; K    1; EIG -2.6455512E-01 AU
 BOTTOM OF VIRTUAL BANDS - BAND     91; K    1; EIG  2.5451944E-02 AU
 TTTTTTTTTTTTTTTTTTTTTTTTTTTTTT PDIG        TELAPSE     4344.71 TCPU     2732.38
 CHARGE NORMALIZATION FACTOR   1.00000000
 TOTAL ATOMIC CHARGES:
  12.6026071  12.6024915  12.6026053  12.6027153  12.6026968  12.6024895
   8.6990435   8.6988057   8.6988044   8.6987186   8.6986686   8.6990003
   8.6985965   8.6983368   8.6988974   8.6986547   8.6981774   8.6986907
 TTTTTTTTTTTTTTTTTTTTTTTTTTTTTT MOQGAD      TELAPSE     4344.73 TCPU     2732.40
 TTTTTTTTTTTTTTTTTTTTTTTTTTTTTT SHELLX      TELAPSE     4424.11 TCPU     2791.69
 TTTTTTTTTTTTTTTTTTTTTTTTTTTTTT MONMO3      TELAPSE     4440.91 TCPU     2808.50
 NUMERICALLY INTEGRATED DENSITY    179.9999701278
 TTTTTTTTTTTTTTTTTTTTTTTTTTTTTT NUMDFT      TELAPSE     4448.62 TCPU     2816.20
 CYC  26 ETOT(AU) -2.640621740972E+03 DETOT -2.35E-06 tst  3.60E-10 PX  3.44E-05
 MODIFIED BROYDEN: MIX%=  90 W0=  1.000000000000E-04 W=  6.036253616586E+00
 TTTTTTTTTTTTTTTTTTTTTTTTTTTTTT FDIK        TELAPSE     4489.84 TCPU     2829.47
 INSULATING STATE
 TOP OF VALENCE BANDS -    BAND     90; K  163; EIG -2.6396790E-01 AU
 TOP OF VALENCE BANDS -    BAND     90; K    1; EIG -2.6427284E-01 AU
 BOTTOM OF VIRTUAL BANDS - BAND     91; K    1; EIG  2.6207714E-02 AU
 TTTTTTTTTTTTTTTTTTTTTTTTTTTTTT PDIG        TELAPSE     4492.97 TCPU     2830.75
 CHARGE NORMALIZATION FACTOR   1.00000000
 TOTAL ATOMIC CHARGES:
  12.6019066  12.6017915  12.6019054  12.6020151  12.6019963  12.6017886
   8.6993945   8.6991555   8.6991541   8.6990684   8.6990183   8.6993512
   8.6989469   8.6986868   8.6992486   8.6990050   8.6985267   8.6990405
 TTTTTTTTTTTTTTTTTTTTTTTTTTTTTT MOQGAD      TELAPSE     4492.99 TCPU     2830.77
 TTTTTTTTTTTTTTTTTTTTTTTTTTTTTT SHELLX      TELAPSE     4591.53 TCPU     2890.19
 TTTTTTTTTTTTTTTTTTTTTTTTTTTTTT MONMO3      TELAPSE     4610.35 TCPU     2909.00
 NUMERICALLY INTEGRATED DENSITY    179.9999701267
 TTTTTTTTTTTTTTTTTTTTTTTTTTTTTT NUMDFT      TELAPSE     4618.06 TCPU     2916.71
 CYC  27 ETOT(AU) -2.640621763154E+03 DETOT -2.22E-05 tst  3.57E-08 PX  3.43E-04
 MODIFIED BROYDEN: MIX%=  90 W0=  1.000000000000E-04 W=  6.551719036393E+00
 TTTTTTTTTTTTTTTTTTTTTTTTTTTTTT FDIK        TELAPSE     4653.70 TCPU     2926.38
 INSULATING STATE
 TOP OF VALENCE BANDS -    BAND     90; K  163; EIG -2.6067970E-01 AU
 TOP OF VALENCE BANDS -    BAND     90; K    1; EIG -2.6095287E-01 AU
 BOTTOM OF VIRTUAL BANDS - BAND     91; K    1; EIG  3.5059828E-02 AU
 TTTTTTTTTTTTTTTTTTTTTTTTTTTTTT PDIG        TELAPSE     4656.47 TCPU     2927.73
 CHARGE NORMALIZATION FACTOR   1.00000000
 TOTAL ATOMIC CHARGES:
  12.5937496  12.5936173  12.5937170  12.5938334  12.5938355  12.5936200
   8.7034599   8.7032647   8.7032473   8.7031896   8.7031103   8.7034294
   8.7030096   8.7027555   8.7033425   8.7030626   8.7026429   8.7031128
 TTTTTTTTTTTTTTTTTTTTTTTTTTTTTT MOQGAD      TELAPSE     4656.49 TCPU     2927.75
 TTTTTTTTTTTTTTTTTTTTTTTTTTTTTT SHELLX      TELAPSE     4728.06 TCPU     2987.35
 TTTTTTTTTTTTTTTTTTTTTTTTTTTTTT MONMO3      TELAPSE     4753.32 TCPU     3012.60
 NUMERICALLY INTEGRATED DENSITY    179.9999701111
 TTTTTTTTTTTTTTTTTTTTTTTTTTTTTT NUMDFT      TELAPSE     4761.02 TCPU     3020.30
 CYC  28 ETOT(AU) -2.640621880976E+03 DETOT -1.18E-04 tst  4.88E-06 PX  4.17E-03
 MODIFIED BROYDEN: MIX%=  90 W0=  1.000000000000E-04 W=  1.567124033050E+03
 TTTTTTTTTTTTTTTTTTTTTTTTTTTTTT FDIK        TELAPSE     4780.28 TCPU     3030.62
 INSULATING STATE
 TOP OF VALENCE BANDS -    BAND     90; K  163; EIG -2.6069254E-01 AU
 TOP OF VALENCE BANDS -    BAND     90; K    1; EIG -2.6096400E-01 AU
 BOTTOM OF VIRTUAL BANDS - BAND     91; K    1; EIG  3.5056686E-02 AU
 TTTTTTTTTTTTTTTTTTTTTTTTTTTTTT PDIG        TELAPSE     4793.99 TCPU     3039.16
 CHARGE NORMALIZATION FACTOR   1.00000000
 TOTAL ATOMIC CHARGES:
  12.5935932  12.5934531  12.5935858  12.5937008  12.5936821  12.5934623
   8.7035716   8.7033183   8.7033047   8.7032253   8.7031816   8.7035291
   8.7031027   8.7028373   8.7034288   8.7031679   8.7026662   8.7031891
 TTTTTTTTTTTTTTTTTTTTTTTTTTTTTT MOQGAD      TELAPSE     4794.01 TCPU     3039.18
 TTTTTTTTTTTTTTTTTTTTTTTTTTTTTT SHELLX      TELAPSE     4872.84 TCPU     3098.36
 TTTTTTTTTTTTTTTTTTTTTTTTTTTTTT MONMO3      TELAPSE     4895.27 TCPU     3120.79
 NUMERICALLY INTEGRATED DENSITY    179.9999701126
 TTTTTTTTTTTTTTTTTTTTTTTTTTTTTT NUMDFT      TELAPSE     4902.96 TCPU     3128.48
 CYC  29 ETOT(AU) -2.640621881715E+03 DETOT -7.39E-07 tst  2.49E-09 PX  3.43E-04
 MODIFIED BROYDEN: MIX%=  90 W0=  1.000000000000E-04 W=  2.077067988504E+03
 TTTTTTTTTTTTTTTTTTTTTTTTTTTTTT FDIK        TELAPSE     4938.01 TCPU     3134.95
 INSULATING STATE
 TOP OF VALENCE BANDS -    BAND     90; K  163; EIG -2.6069068E-01 AU
 TOP OF VALENCE BANDS -    BAND     90; K    1; EIG -2.6096262E-01 AU
 BOTTOM OF VIRTUAL BANDS - BAND     91; K    1; EIG  3.5056480E-02 AU
 TTTTTTTTTTTTTTTTTTTTTTTTTTTTTT PDIG        TELAPSE     4942.40 TCPU     3135.62
 CHARGE NORMALIZATION FACTOR   1.00000000
 TOTAL ATOMIC CHARGES:
  12.5936062  12.5934683  12.5935925  12.5937087  12.5936955  12.5934755
   8.7035565   8.7033174   8.7033049   8.7032331   8.7031750   8.7035166
   8.7030920   8.7028297   8.7034191   8.7031526   8.7026727   8.7031839
 TTTTTTTTTTTTTTTTTTTTTTTTTTTTTT MOQGAD      TELAPSE     4942.42 TCPU     3135.64
 TTTTTTTTTTTTTTTTTTTTTTTTTTTTTT SHELLX      TELAPSE     5032.50 TCPU     3194.59
 TTTTTTTTTTTTTTTTTTTTTTTTTTTTTT MONMO3      TELAPSE     5053.06 TCPU     3215.14
 NUMERICALLY INTEGRATED DENSITY    179.9999701121
 TTTTTTTTTTTTTTTTTTTTTTTTTTTTTT NUMDFT      TELAPSE     5060.75 TCPU     3222.82
 CYC  30 ETOT(AU) -2.640621881725E+03 DETOT -1.06E-08 tst  5.65E-12 PX  1.36E-05
 MODIFIED BROYDEN: MIX%=  90 W0=  1.000000000000E-04 W=  3.312246611595E+03
 TTTTTTTTTTTTTTTTTTTTTTTTTTTTTT FDIK        TELAPSE     5104.42 TCPU     3236.28
 INSULATING STATE
 TOP OF VALENCE BANDS -    BAND     90; K  163; EIG -2.6069105E-01 AU
 TOP OF VALENCE BANDS -    BAND     90; K    1; EIG -2.6096298E-01 AU
 BOTTOM OF VIRTUAL BANDS - BAND     91; K    1; EIG  3.5056285E-02 AU
 TTTTTTTTTTTTTTTTTTTTTTTTTTTTTT PDIG        TELAPSE     5106.62 TCPU     3237.40
 CHARGE NORMALIZATION FACTOR   1.00000000
 TOTAL ATOMIC CHARGES:
  12.5936061  12.5934669  12.5935919  12.5937086  12.5936951  12.5934752
   8.7035572   8.7033179   8.7033045   8.7032323   8.7031759   8.7035171
   8.7030920   8.7028299   8.7034202   8.7031534   8.7026724   8.7031836
 TTTTTTTTTTTTTTTTTTTTTTTTTTTTTT MOQGAD      TELAPSE     5106.64 TCPU     3237.42
 TTTTTTTTTTTTTTTTTTTTTTTTTTTTTT SHELLX      TELAPSE     5192.38 TCPU     3296.70
 +++ ENERGIES IN A.U. +++
 ::: EXT EL-POLE                                  -3.5041499421078E+03
 ::: EXT EL-SPHEROPOLE                             2.6930433199642E+01
 ::: BIELET ZONE E-E                               4.3100646831015E+03
 ::: TOTAL E-E                                     8.3284517419336E+02
 ::: TOTAL E-N + N-E                              -5.5033779211227E+03
 ::: TOTAL N-N                                    -4.1533493108345E+02
 ::: KINETIC ENERGY                                2.6304549998825E+03
 ::: PSEUDO TOTAL   ENERGY                        -2.4554126781303E+03
 ::: VIRIAL COEFFICIENT                            1.0344173959753E+00
 TTTTTTTTTTTTTTTTTTTTTTTTTTTTTT MONMO3      TELAPSE     5214.35 TCPU     3318.60
 NUMERICALLY INTEGRATED DENSITY    179.9999701121
 TTTTTTTTTTTTTTTTTTTTTTTTTTTTTT NUMDFT      TELAPSE     5222.06 TCPU     3326.31
 CYC  31 ETOT(AU) -2.640621881724E+03 DETOT  1.46E-09 tst  7.00E-13 PX  1.36E-05

 == SCF ENDED - CONVERGENCE ON ENERGY      E(AU) -2.6406218817237E+03 CYCLES  31


 ENERGY EXPRESSION=HARTREE+FOCK EXCH*0.20000+(BECKE  EXCH)*0.80000+LYP    CORR

 FINITE TEMPERATURE DFT CALCULATION 
 TEMPERATURE      (T)    1.000000000000E-13 HARTREE 
 ENERGY           (E)   -2.640621881724E+03
 FREE ENERGY      (F)   -2.640621881724E+03
 ELECTRON ENTROPY (S)    0.000000000000E+00
 (E(T)+F(T))/2    (E0)  -2.640621881724E+03


 TOTAL ENERGY(DFT)(AU)( 31) -2.6406218817237E+03 DE 1.5E-09 tester 7.0E-13
 TTTTTTTTTTTTTTTTTTTTTTTTTTTTTT EDFT        TELAPSE     5222.07 TCPU     3326.32
 EIGENVECTORS IN FORTRAN UNIT 10
 TTTTTTTTTTTTTTTTTTTTTTTTTTTTTT END         TELAPSE     5235.57 TCPU     3327.31
 EEEEEEEEEE TERMINATION  DATE 29 07 2015 TIME 10:22:08.8
NODE    0 CPU TIME =      3327.313
NODE    1 CPU TIME =      3500.786
NODE    2 CPU TIME =      3085.516
NODE    3 CPU TIME =      3227.721
NODE    4 CPU TIME =      3931.928
NODE    5 CPU TIME =      3608.174
NODE    6 CPU TIME =      3196.784
NODE    7 CPU TIME =      3153.660
NODE    8 CPU TIME =      3331.097
NODE    9 CPU TIME =      3484.148
NODE   10 CPU TIME =      3349.982
NODE   11 CPU TIME =      3485.270
    TOTAL CPU TIME =     40682.379
