--------------------------------------------------------------------------
WARNING: Open MPI will create a shared memory backing file in a
directory that appears to be mounted on a network filesystem.
Creating the shared memory backup file on a network file system, such
as NFS or Lustre is not recommended -- it may cause excessive network
traffic to your file servers and/or cause shared memory traffic in
Open MPI to be much slower than expected.

You may want to check what the typical temporary directory is on your
node.  Possible sources of the location of this temporary directory
include the $TEMPDIR, $TEMP, and $TMP environment variables.

Note, too, that system administrators can set a list of filesystems
where Open MPI is disallowed from creating temporary files by settings
the MCA parameter "orte_no_session_dir".

  Local host: r2i7n4
  Fileame:    /ichec/work/scratch/tmp/577045/openmpi-sessions-emehes@r2i7n4_0/15647/1/shared_mem_pool.r2i7n4

You can set the MCA paramter shmem_mmap_enable_nfs_warning to 0 to
disable this message.
--------------------------------------------------------------------------
         144 PROCESSORS WORKING

         
 *******************************************************************************
 *                                                                             *
 *                                CRYSTAL09                                    *
 *                              public : 2.0                                   *
 *                      December 10th, 2012 - parallel executable              *
 *                                                                             *
 *                                                                             *
 *                                                                             *
 *                              MAIN AUTHORS                                   *
 *                                                                             *
 *    R. DOVESI(1,10), V.R. SAUNDERS(2), C. ROETTI(1,10), R. ORLANDO (1,3),    *
 *  C.M. ZICOVICH-WILSON(1,4), F. PASCALE(5), B. CIVALLERI(1,10), K. DOLL(6),  *
 *       N.M. HARRISON(2,7), I. J. BUSH(2), Ph. D'ARCO(8), M. LLUNELL(9)       *
 *                                                                             *
 * (1) THEORETICAL CHEMISTRY GROUP - UNIVERSITA' DI TORINO - TORINO (ITALY)    *
 *      http://www.crystal.unito.it                                            *
 * (2) COMPUTATIONAL SCIENCE & ENGINEERING DEPARTMENT - STFC DARESBURY LABORATO*Y (UK)
 *     http://www.cse.stfc.ac.uk/cmg/CRYSTAL/                                  *
 * (3) UNIVERSITA' DEL PIEMONTE ORIENTALE - ALESSANDRIA (ITALY)                *
 * (4) UNIVERSIDAD AUTONOMA DEL ESTADO DE MORELOS - CUERNAVACA (MEXICO)        *
 * (5) UNIVERSITE' HENRI POINCARE' - NANCY (FRANCE)                            *
 * (6) MPI FUER FESTKOERPERFORSCHUNG - STUTTGART (GERMANY)                     *
 * (7) IMPERIAL COLLEGE - LONDON (UK)                                          *
 * (8) UNIVERSITE' PIERRE ET MARIE CURIE - PARIS (FRANCE)                      *
 * (9) UNIVERSIDAD DE BARCELONA - BARCELONA (SPAIN)                            *
 *(10) NIS - NANOSTRUCTURED INTERFACES AND SURFACES - TORINO (ITALY)           *
 *     http://www.crystal.unito.it                                             *
 *******************************************************************************
 EEEEEEEEEE STARTING  DATE 17 07 2015 TIME 14:44:17.7
 HfO2                                                                            

 CRYSTAL CALCULATION
 (INPUT ACCORDING TO THE INTERNATIONAL TABLES FOR X-RAY CRYSTALLOGRAPHY)
 CRYSTAL FAMILY                       :  MONOCLINIC  
 CRYSTAL CLASS  (GROTH - 1921)        :  MONOCLINIC PRISMATIC                 

 SPACE GROUP (CENTROSYMMETRIC)        :  P 21/C          

 LATTICE PARAMETERS  (ANGSTROMS AND DEGREES) - CONVENTIONAL CELL
        A           B           C        ALPHA        BETA       GAMMA
     5.15368     5.17414     5.31641    90.00000    99.41939    90.00000


 NUMBER OF IRREDUCIBLE ATOMS IN THE CONVENTIONAL CELL:    3

 INPUT COORDINATES

 ATOM AT. N.              COORDINATES
   1 272     2.743275337811E-01 -4.078667063093E-02  2.085953016592E-01
   2   8     6.634108531932E-02 -3.248783376170E-01  3.525106917980E-01
   3   8     4.528958590862E-01  2.434813483662E-01  4.766915185106E-01

 *******************************************************************************

 << INFORMATION >>: FROM NOW ON, ALL COORDINATES REFER TO THE PRIMITIVE CELL

 *******************************************************************************

 LATTICE PARAMETERS  (ANGSTROMS AND DEGREES) - PRIMITIVE CELL
       A          B          C         ALPHA     BETA     GAMMA        VOLUME
    5.15368    5.17414    5.31641    90.00000  99.41939  90.00000    139.855196

 COORDINATES OF THE EQUIVALENT ATOMS (FRACTIONAL UNITS)

 N. ATOM EQUIV AT. N.          X                  Y                  Z

   1   1   1  272 HF    2.74327533781E-01 -4.07866706309E-02  2.08595301659E-01
   2   1   2  272 HF   -2.74327533781E-01  4.59213329369E-01  2.91404698341E-01
   3   1   3  272 HF   -2.74327533781E-01  4.07866706309E-02 -2.08595301659E-01
   4   1   4  272 HF    2.74327533781E-01 -4.59213329369E-01 -2.91404698341E-01

   5   2   1    8 O     6.63410853193E-02 -3.24878337617E-01  3.52510691798E-01
   6   2   2    8 O    -6.63410853193E-02  1.75121662383E-01  1.47489308202E-01
   7   2   3    8 O    -6.63410853193E-02  3.24878337617E-01 -3.52510691798E-01
   8   2   4    8 O     6.63410853193E-02 -1.75121662383E-01 -1.47489308202E-01

   9   3   1    8 O     4.52895859086E-01  2.43481348366E-01  4.76691518511E-01
  10   3   2    8 O    -4.52895859086E-01 -2.56518651634E-01  2.33084814894E-02
  11   3   3    8 O    -4.52895859086E-01 -2.43481348366E-01 -4.76691518511E-01
  12   3   4    8 O     4.52895859086E-01  2.56518651634E-01 -2.33084814894E-02

 NUMBER OF SYMMETRY OPERATORS         :    4
 *******************************************************************************
 * GEOMETRY EDITING - INPUT COORDINATES ARE GIVEN IN ANGSTROM         
 *******************************************************************************

 GEOMETRY NOW FULLY CONSISTENT WITH THE GROUP
 INFORMATION **** NEIGHPRT **** neighbors in geometry analysis          10

 GCALCO - MAX INDICES DIRECT LATTICE VECTOR    15    15    14
 NO.OF VECTORS CREATED 6999 STARS 1867 RMAX   116.37018 BOHR

 GEOMETRY FOR WAVE FUNCTION - DIMENSIONALITY OF THE SYSTEM    3
 (NON PERIODIC DIRECTION: LATTICE PARAMETER FORMALLY SET TO 500)
 *******************************************************************************
 LATTICE PARAMETERS (ANGSTROMS AND DEGREES) - BOHR = 0.5291772083 ANGSTROM
 PRIMITIVE CELL - CENTRING CODE 1/0 VOLUME=   139.855196 - DENSITY 10.066 g/cm^3
         A              B              C           ALPHA      BETA       GAMMA 
     5.15367972     5.17414234     5.31640802    90.000000  99.419387  90.000000
 *******************************************************************************
 ATOMS IN THE ASYMMETRIC UNIT    3 - ATOMS IN THE UNIT CELL:   12
     ATOM              X/A                 Y/B                 Z/C    
 *******************************************************************************
   1 T 272 HF    2.743275337811E-01 -4.078667063093E-02  2.085953016592E-01
   2 F 272 HF   -2.743275337811E-01  4.592133293691E-01  2.914046983408E-01
   3 F 272 HF   -2.743275337811E-01  4.078667063093E-02 -2.085953016592E-01
   4 F 272 HF    2.743275337811E-01 -4.592133293691E-01 -2.914046983408E-01
   5 T   8 O     6.634108531932E-02 -3.248783376170E-01  3.525106917980E-01
   6 F   8 O    -6.634108531932E-02  1.751216623830E-01  1.474893082020E-01
   7 F   8 O    -6.634108531932E-02  3.248783376170E-01 -3.525106917980E-01
   8 F   8 O     6.634108531932E-02 -1.751216623830E-01 -1.474893082020E-01
   9 T   8 O     4.528958590862E-01  2.434813483662E-01  4.766915185106E-01
  10 F   8 O    -4.528958590862E-01 -2.565186516338E-01  2.330848148940E-02
  11 F   8 O    -4.528958590862E-01 -2.434813483662E-01 -4.766915185106E-01
  12 F   8 O     4.528958590862E-01  2.565186516338E-01 -2.330848148940E-02

 T = ATOM BELONGING TO THE ASYMMETRIC UNIT

 ****   4 SYMMOPS - TRANSLATORS IN FRACTIONAL UNITS
  V INV                   ROTATION MATRICES                       TRANSLATOR
  1  1  1.00  0.00  0.00  0.00  1.00  0.00  0.00  0.00  1.00    0.00  0.00  0.00
  2  2 -1.00  0.00  0.00  0.00  1.00  0.00  0.00  0.00 -1.00    0.00  0.50  0.50
  3  3 -1.00  0.00  0.00  0.00 -1.00  0.00  0.00  0.00 -1.00    0.00  0.00  0.00
  4  4  1.00  0.00  0.00  0.00 -1.00  0.00  0.00  0.00  1.00    0.00  0.50  0.50

 DIRECT LATTICE VECTORS CARTESIAN COMPONENTS (ANGSTROM)
          X                    Y                    Z
   0.515367972000E+01   0.315571868646E-15   0.000000000000E+00
   0.000000000000E+00   0.517414234000E+01   0.000000000000E+00
  -0.870082147434E+00   0.325536103233E-15   0.524472604545E+01


 CARTESIAN COORDINATES - PRIMITIVE CELL
 *******************************************************************************
 *      ATOM          X(ANGSTROM)         Y(ANGSTROM)         Z(ANGSTROM)
 *******************************************************************************
   1   272 HF    1.232301199473E+00 -2.110360394191E-01  1.094025211571E+00
   2   272 HF   -1.667342273190E+00  2.376035130581E+00  1.528337811155E+00
   3   272 HF   -1.232301199473E+00  2.110360394191E-01 -1.094025211571E+00
   4   272 HF    1.667342273190E+00 -2.376035130581E+00 -1.528337811155E+00
   5     8 O     3.518744629978E-02 -1.680966762013E+00  1.848822006573E+00
   6     8 O    -4.702285200170E-01  9.061044079871E-01  7.735410161526E-01
   7     8 O    -3.518744629978E-02  1.680966762013E+00 -1.848822006573E+00
   8     8 O     4.702285200170E-01 -9.061044079871E-01 -7.735410161526E-01
   9     8 O     1.919319424155E+00  1.259807153582E+00  2.500116422778E+00
  10     8 O    -2.354360497872E+00 -1.327264016418E+00  1.222465999474E-01
  11     8 O    -1.919319424155E+00 -1.259807153582E+00 -2.500116422778E+00
  12     8 O     2.354360497872E+00  1.327264016418E+00 -1.222465999474E-01

 *******************************************************************************
 *** PSEUDOPOTENTIAL INFORMATION ***
 *******************************************************************************

 ATOMIC NUMBER  72, NUCLEAR CHARGE 12.000, HAY-WADT SMALL CORE  PSEUDOPOTENTIAL
   TYPE       EXPONENT      COEFF.    N      EXPONENT      COEFF.    N
  W0 TMS   685.5502931  -60.0000000  -1   151.8080485 -688.4980664   0
            38.0522099 -199.7748820   0    10.2057544  -77.2365121   0
             3.4376287  -14.6532596   0     0.8997539   -0.6762204   0
  P0 TMS   380.1096725    3.0000000  -2   724.6234505   31.3395532  -1
           281.4764603 1251.6866138   0    89.3590988  700.8900106   0
            22.9765773  266.0445845   0     3.6700035  465.0196155   0
             3.4703000 -369.5404568   0
  P1 TMS   228.3135771    2.0000000  -2    64.0878447   60.2776972  -1
            20.5139289  192.2174983   0     3.1643736  339.6460089   0
             2.9880924 -266.1066543   0
  P2 TMS   143.7102399    3.0000000  -2    63.1859170   54.6576760  -1
            32.0227449  217.5811427   0    10.7674922  125.1363084   0
             3.1003260   37.6203195   0
  P3 TMS    85.0395853    4.0000000  -2    41.8198820   49.6358393  -1
            19.6524967  178.4657222   0     6.0777120   82.0077173   0
             1.4776693    6.3063943   0

 *******************************************************************************
 LOCAL ATOMIC FUNCTIONS BASIS SET
 *******************************************************************************
   ATOM  X(AU)  Y(AU)  Z(AU)    NO. TYPE  EXPONENT  S COEF   P COEF   D/F/G COEF
 *******************************************************************************
   1 HF  2.329 -0.399  2.067
                                  1 S  
                                         2.400E+01 2.211E-01 0.000E+00 0.000E+00
                                         1.600E+01-3.581E+00 0.000E+00 0.000E+00
                                         1.440E+01 4.254E+00 0.000E+00 0.000E+00
                                         1.030E+01-6.959E-01 0.000E+00 0.000E+00
                                  2 S  
                                         3.793E+00 1.000E+00 0.000E+00 0.000E+00
                                  3 S  
                                         1.019E+00 1.000E+00 0.000E+00 0.000E+00
                                  4 S  
                                         4.599E-01 1.000E+00 0.000E+00 0.000E+00
                                  5 S  
                                         1.928E-01 1.000E+00 0.000E+00 0.000E+00
                             6-   8 P  
                                         2.235E+01 0.000E+00-7.453E-03 0.000E+00
                                         8.740E+00 0.000E+00 1.564E-01 0.000E+00
                                         4.850E+00 0.000E+00-4.487E-01 0.000E+00
                             9-  11 P  
                                         1.257E+00 0.000E+00 1.000E+00 0.000E+00
                            12-  14 P  
                                         6.112E-01 0.000E+00 1.000E+00 0.000E+00
                            15-  17 P  
                                         2.674E-01 0.000E+00 1.000E+00 0.000E+00
                            18-  22 D  
                                         8.056E+00 0.000E+00 0.000E+00 9.673E-03
                                         4.342E+00 0.000E+00 0.000E+00-5.457E-02
                                         1.184E+00 0.000E+00 0.000E+00 1.969E-01
                                         5.134E-01 0.000E+00 0.000E+00 4.000E-01
                            23-  27 D  
                                         2.055E-01 0.000E+00 0.000E+00 1.000E+00
   2 HF -3.151  4.490  2.888
   3 HF -2.329  0.399 -2.067
   4 HF  3.151 -4.490 -2.888
   5 O   0.066 -3.177  3.494
                                109 S  
                                         2.703E+04 2.173E-04 0.000E+00 0.000E+00
                                         4.052E+03 1.684E-03 0.000E+00 0.000E+00
                                         9.223E+02 8.740E-03 0.000E+00 0.000E+00
                                         2.612E+02 3.524E-02 0.000E+00 0.000E+00
                                         8.535E+01 1.115E-01 0.000E+00 0.000E+00
                                         3.104E+01 2.559E-01 0.000E+00 0.000E+00
                                110 S  
                                         1.226E+01 3.977E-01 0.000E+00 0.000E+00
                                         4.999E+00 2.463E-01 0.000E+00 0.000E+00
                                111 S  
                                         1.099E+00 1.000E+00 0.000E+00 0.000E+00
                                112 S  
                                         3.566E-01 1.000E+00 0.000E+00 0.000E+00
                           113- 115 P  
                                         6.327E+01 0.000E+00 6.069E-03 0.000E+00
                                         1.463E+01 0.000E+00 4.191E-02 0.000E+00
                                         4.450E+00 0.000E+00 1.615E-01 0.000E+00
                                         1.528E+00 0.000E+00 3.571E-01 0.000E+00
                           116- 118 P  
                                         5.490E-01 0.000E+00 1.000E+00 0.000E+00
                           119- 121 P  
                                         1.859E-01 0.000E+00 1.000E+00 0.000E+00
                           122- 126 D  
                                         2.535E-01 0.000E+00 0.000E+00 1.000E+00
   6 O  -0.889  1.712  1.462
   7 O  -0.066  3.177 -3.494
   8 O   0.889 -1.712 -1.462
   9 O   3.627  2.381  4.725
  10 O  -4.449 -2.508  0.231
  11 O  -3.627 -2.381 -4.725
  12 O   4.449  2.508 -0.231
 INFORMATION **** TOLINTEG **** COULOMB AND EXCHANGE SERIES TOLERANCES MODIFIED
 INFORMATION **** READM2 **** FULL DIRECT SCF (MONO AND BIEL INT) SELECTED
 INFORMATION **** SMEAR **** FERMI SMEARING ACTIVE
 FERMI SMEARING - TEMPERATURE SMEARING OF FERMI SURFACE  0.1000E-12
 INFORMATION **** MAXCYCLE **** MAX NUMBER OF SCF CYCLES SET TO         150

 MODIFIED BROYDEN MIXING OF THE FOCK MATRIX
 WO PARAMETER(D.D. Johnson, PRB38, 12807,(1988)             1.0000E-04
 % OF FOCK/KS MATRICES MIXING WHEN BROYDEN METHOD IS ON             60
 NUMBER OF SCF ITERATIONS AFTER WHICH BROYDEN METHOD IS ACTIVE       5
 INFORMATION **** TOLDEE **** SCF TOL ON TOTAL ENERGY SET TO          10
 *******************************************************************************
 N. OF ATOMS PER CELL       12  COULOMB OVERLAP TOL         (T1) 10** -8
 NUMBER OF SHELLS          108  COULOMB PENETRATION TOL     (T2) 10** -8
 NUMBER OF AO              252  EXCHANGE OVERLAP TOL        (T3) 10** -8
 N. OF ELECTRONS PER CELL  112  EXCHANGE PSEUDO OVP (F(G))  (T4) 10** -8
 CORE ELECTRONS PER CELL    16  EXCHANGE PSEUDO OVP (P(G))  (T5) 10**-16
 N. OF SYMMETRY OPERATORS    4  POLE ORDER IN MONO ZONE                4
 *******************************************************************************
 TYPE OF CALCULATION :  RESTRICTED CLOSED SHELL
 KOHN-SHAM HAMILTONIAN

 (EXCHANGE)[CORRELATION] FUNCTIONAL:(BECKE)[LEE-YANG-PARR]

 NON-LOCAL WEIGHTING FACTOR (EXCHANGE) =           0.9000
 NON-LOCAL WEIGHTING FACTOR [CORRELATION] =        0.8100

 HYBRID EXCHANGE - PERCENTAGE OF FOCK EXCHANGE    20.0000
 CORE  PSEUDO POTENTIAL         TOL. ON PSEUDO              (TP) 10**- 6

 CAPPA:IS1  6;IS2  6;IS3  6; K PTS MONK NET   80; SYMMOPS: K SPACE  4;G SPACE  4

 *******************************************************************************
 MAX NUMBER OF SCF CYCLES     150  CONVERGENCE ON DELTAP        10**-20
 WEIGHT OF F(I) IN F(I+1)      80% CONVERGENCE ON ENERGY        10**-10
 SHRINK. FACT.(MONKH.)    6  6  6  NUMBER OF K POINTS IN THE IBZ     80
 SHRINKING FACTOR(GILAT NET)    6  NUMBER OF K POINTS(GILAT NET)     80
 *******************************************************************************
 *** K POINTS COORDINATES (OBLIQUE COORDINATES IN UNITS OF IS =  6)
   1-R(  0  0  0)   2-C(  1  0  0)   3-C(  2  0  0)   4-R(  3  0  0)
   5-C(  0  1  0)   6-C(  1  1  0)   7-C(  2  1  0)   8-C(  3  1  0)
   9-C(  0  2  0)  10-C(  1  2  0)  11-C(  2  2  0)  12-C(  3  2  0)
  13-R(  0  3  0)  14-C(  1  3  0)  15-C(  2  3  0)  16-R(  3  3  0)
  17-C(  0  0  1)  18-C(  1  0  1)  19-C(  2  0  1)  20-C(  3  0  1)
  21-C(  4  0  1)  22-C(  5  0  1)  23-C(  0  1  1)  24-C(  1  1  1)
  25-C(  2  1  1)  26-C(  3  1  1)  27-C(  4  1  1)  28-C(  5  1  1)
  29-C(  0  2  1)  30-C(  1  2  1)  31-C(  2  2  1)  32-C(  3  2  1)
  33-C(  4  2  1)  34-C(  5  2  1)  35-C(  0  3  1)  36-C(  1  3  1)
  37-C(  2  3  1)  38-C(  3  3  1)  39-C(  4  3  1)  40-C(  5  3  1)
  41-C(  0  0  2)  42-C(  1  0  2)  43-C(  2  0  2)  44-C(  3  0  2)
  45-C(  4  0  2)  46-C(  5  0  2)  47-C(  0  1  2)  48-C(  1  1  2)
  49-C(  2  1  2)  50-C(  3  1  2)  51-C(  4  1  2)  52-C(  5  1  2)
  53-C(  0  2  2)  54-C(  1  2  2)  55-C(  2  2  2)  56-C(  3  2  2)
  57-C(  4  2  2)  58-C(  5  2  2)  59-C(  0  3  2)  60-C(  1  3  2)
  61-C(  2  3  2)  62-C(  3  3  2)  63-C(  4  3  2)  64-C(  5  3  2)
  65-R(  0  0  3)  66-C(  1  0  3)  67-C(  2  0  3)  68-R(  3  0  3)
  69-C(  0  1  3)  70-C(  1  1  3)  71-C(  2  1  3)  72-C(  3  1  3)
  73-C(  0  2  3)  74-C(  1  2  3)  75-C(  2  2  3)  76-C(  3  2  3)
  77-R(  0  3  3)  78-C(  1  3  3)  79-C(  2  3  3)  80-R(  3  3  3)

 DIRECT LATTICE VECTORS COMPON. (A.U.)     RECIP. LATTICE VECTORS COMPON. (A.U.) 
        X            Y            Z              X            Y            Z
    9.7390433    0.0000000    0.0000000      0.6451543    0.0000000    0.1070289
    0.0000000    9.7777120    0.0000000      0.0000000    0.6426028    0.0000000
   -1.6442170    0.0000000    9.9110959      0.0000000    0.0000000    0.6339546

 DISK SPACE FOR EIGENVECTORS (FTN 10)    9652608 REALS

 SYMMETRY ADAPTION OF THE BLOCH FUNCTIONS ENABLED
 TTTTTTTTTTTTTTTTTTTTTTTTTTTTTT gordsh1     TELAPSE        3.41 TCPU        0.45

 DIMENSIONS  P(G)=  758268 F(G)=  132712 P(G),F(G) (IRR)  101025
 MAX G-VECTOR INDEX FOR 1- AND 2-ELECTRON INTEGRALS 123

 TTTTTTTTTTTTTTTTTTTTTTTTTTTTTT INPUT       TELAPSE        3.45 TCPU        0.49

 NEIGHBORS OF THE NON-EQUIVALENT ATOMS

 N = NUMBER OF NEIGHBORS AT DISTANCE R
    ATOM  N     R/ANG      R/AU   NEIGHBORS (ATOM LABELS AND CELL INDICES)
   1 HF   1     2.0405     3.8559   5 O    0 0 0
   1 HF   1     2.0614     3.8955   6 O    0 0 0
   1 HF   1     2.1335     4.0317   8 O    0 0 0
   1 HF   1     2.1477     4.0585   9 O    0 0 0
   1 HF   1     2.1554     4.0732  10 O    1 0 0
   1 HF   1     2.2594     4.2696  12 O    0 0 0
   1 HF   1     2.2596     4.2700  11 O    1 0 1
   1 HF   1     3.3226     6.2789   3 HF   0 0 0
   1 HF   2     3.4283     6.4786   4 HF   0 0 0   4 HF   0 0 1
   1 HF   2     3.4586     6.5359   2 HF   1 0 0   2 HF   1-1 0

   5 O    1     2.0405     3.8559   1 HF   0 0 0
   5 O    1     2.0614     3.8955   2 HF   0-1 0
   5 O    1     2.1335     4.0317   4 HF   0 0 1
   5 O    1     2.5307     4.7823  11 O    1 0 1
   5 O    1     2.5616     4.8408   7 O    0-1 1
   5 O    2     2.7688     5.2323   8 O    0 0 0   8 O    0 0 1
   5 O    2     2.8469     5.3798   6 O    0 0 0   6 O    0-1 0
   5 O    1     2.9692     5.6110  10 O    0 0 0
   5 O    1     2.9930     5.6560  11 O    0 0 1
   5 O    1     2.9937     5.6572   9 O    0-1 0

   9 O    1     2.1477     4.0585   1 HF   0 0 0
   9 O    1     2.1554     4.0732   2 HF   1 0 0
   9 O    1     2.2594     4.2696   4 HF   0 1 1
   9 O    1     2.2596     4.2700   3 HF   1 0 1
   9 O    1     2.5307     4.7823   7 O    1 0 1
   9 O    1     2.5703     4.8571  11 O    1 0 1
   9 O    2     2.6591     5.0249  12 O    0 0 0  12 O    0 0 1
   9 O    1     2.7026     5.1073  11 O    1 1 1
   9 O    1     2.9692     5.6110   6 O    0 0 0
   9 O    1     2.9930     5.6560   7 O    0 0 1


 SYMMETRY ALLOWED INTERNAL DEGREE(S) OF FREEDOM:   9
 TTTTTTTTTTTTTTTTTTTTTTTTTTTTTT SYMM        TELAPSE        3.49 TCPU        0.53
 TTTTTTTTTTTTTTTTTTTTTTTTTTTTTT INT_SCREEN  TELAPSE        3.50 TCPU        0.54
 INFORMATION **** EXCBUF **** EXCH. BIPO BUFFER: WORDS USED =      360000
 WARNING **** EXCBUF **** EXCH. BIPO BUFFER TOO SMALL - TO AVOID I/O SET EXCHSIZE =     2358468

 DFT PARAMETERS

     ATOM       ELECTRONS   NET CHARGE   R(ANGSTROM)
   1 272  HF      8.0000      4.0000     0.71000000
   5   8  O      10.0000     -2.0000     1.40000000
[r2i7n4:14083] 11 more processes have sent help message help-opal-shmem-mmap.txt / mmap on nfs
[r2i7n4:14083] Set MCA parameter "orte_base_help_aggregate" to 0 to see all help / error messages

 SIZE OF GRID=      61678
 TTTTTTTTTTTTTTTTTTTTTTTTTTTTTT MAKE_GRID2  TELAPSE       12.88 TCPU        9.64
 BECKE WEIGHT FUNCTION
 RADSAFE =     2.00
 TOLERANCES - DENSITY:10**- 6; POTENTIAL:10**- 9; GRID WGT:10**-14

 RADIAL INTEGRATION  - INTERVALS (POINTS,UPPER LIMIT):            1( 75,  4.0*R)

 ANGULAR INTEGRATION - INTERVALS (ACCURACY LEVEL [N. POINTS] UPPER LIMIT):
  1(  4[  86]   0.2)  2(  8[ 194]   0.5)  3( 12[ 350]   0.9)  4( 16[ 974]   3.5)
  5( 12[ 350]9999.0)
 TTTTTTTTTTTTTTTTTTTTTTTTTTTTTT INT_CALC    TELAPSE       12.94 TCPU        9.70
 EEEEEEEEEE INT_CALC TERMINATION  DATE 17 07 2015 TIME 14:44:27.4

 *******************************************************************************
 HfO2                                                                            
 CRYSTAL - SCF - TYPE OF CALCULATION :  RESTRICTED CLOSED SHELL
 *******************************************************************************

 CAPPA:IS1  6;IS2  6;IS3  6; K PTS MONK NET   80; SYMMOPS: K SPACE  4;G SPACE  4

 TTTTTTTTTTTTTTTTTTTTTTTTTTTTTT SDIK        TELAPSE       13.23 TCPU        9.99

 AAAAAAAAAAAAAAAAAAAAAAAAAAAAAAAAAAAAAAAAAAAAAAAAAAAAAAAAAAAAAAAAAAAAAAAAAAAAAAA
         ATOMIC WAVEFUNCTION(S)


 NUCLEAR CHARGE 12.0  SYMMETRY SPECIES            S    P
 N. ELECTRONS    8.0  NUMBER OF PRIMITIVE GTOS    8    6
                      NUMBER OF CONTRACTED GTOS   5    4
                      NUMBER OF CLOSED SHELLS     1    1
                      OPEN SHELL OCCUPATION       0    0

  ZNUC SCFIT  TOTAL HF ENERGY   KINETIC ENERGY   VIRIAL THEOREM ACCURACY
  12.0   5   -4.553754373E+01  1.235933936E+01 -4.684464226E+00  1.2E-06

 NUCLEAR CHARGE  8.0  SYMMETRY SPECIES            S    P
 N. ELECTRONS   10.0  NUMBER OF PRIMITIVE GTOS   10    6
                      NUMBER OF CONTRACTED GTOS   4    3
                      NUMBER OF CLOSED SHELLS     2    1
                      OPEN SHELL OCCUPATION       0    0

  ZNUC SCFIT  TOTAL HF ENERGY   KINETIC ENERGY   VIRIAL THEOREM ACCURACY
   8.0  26   -7.431960197E+01  7.496076567E+01 -1.991446676E+00  4.5E-06

 AAAAAAAAAAAAAAAAAAAAAAAAAAAAAAAAAAAAAAAAAAAAAAAAAAAAAAAAAAAAAAAAAAAAAAAAAAAAAAA

 CHARGE NORMALIZATION FACTOR   1.00000000
 TOTAL ATOMIC CHARGES:
   8.0000000   8.0000000   8.0000000   8.0000000  10.0000000  10.0000000
  10.0000000  10.0000000  10.0000000  10.0000000  10.0000000  10.0000000
 TTTTTTTTTTTTTTTTTTTTTTTTTTTTTT MOQGAD      TELAPSE       13.42 TCPU       10.18
 TTTTTTTTTTTTTTTTTTTTTTTTTTTTTT SHELLX      TELAPSE       15.81 TCPU       12.56
 TTTTTTTTTTTTTTTTTTTTTTTTTTTTTT MONMO3      TELAPSE       20.42 TCPU       17.17
 NUMERICALLY INTEGRATED DENSITY    112.0000419141
 TTTTTTTTTTTTTTTTTTTTTTTTTTTTTT NUMDFT      TELAPSE       20.82 TCPU       17.55
 CYC   0 ETOT(AU) -8.024836453021E+02 DETOT -8.02E+02 tst  0.00E+00 PX  1.00E+00
 TTTTTTTTTTTTTTTTTTTTTTTTTTTTTT FDIK        TELAPSE       22.72 TCPU       19.33
 INSULATING STATE
 TOP OF VALENCE BANDS -    BAND     56; K    1; EIG -1.9151715E-01 AU
 BOTTOM OF VIRTUAL BANDS - BAND     57; K    4; EIG  2.3487908E-02 AU
 BOTTOM OF VIRTUAL BANDS - BAND     57; K    1; EIG  4.5343346E-02 AU
 TTTTTTTTTTTTTTTTTTTTTTTTTTTTTT PDIG        TELAPSE       26.54 TCPU       22.95
 CHARGE NORMALIZATION FACTOR   1.00000000
 TOTAL ATOMIC CHARGES:
   9.0346659   9.0346659   9.0346659   9.0346659   9.3178483   9.3178483
   9.3178483   9.3178483   9.6474858   9.6474858   9.6474858   9.6474858
 TTTTTTTTTTTTTTTTTTTTTTTTTTTTTT MOQGAD      TELAPSE       26.68 TCPU       23.08
 TTTTTTTTTTTTTTTTTTTTTTTTTTTTTT SHELLX      TELAPSE       29.64 TCPU       26.04
 TTTTTTTTTTTTTTTTTTTTTTTTTTTTTT MONMO3      TELAPSE       33.96 TCPU       30.35
 NUMERICALLY INTEGRATED DENSITY    112.0000570321
 TTTTTTTTTTTTTTTTTTTTTTTTTTTTTT NUMDFT      TELAPSE       35.17 TCPU       31.55
 CYC   1 ETOT(AU) -7.980527028759E+02 DETOT  4.43E+00 tst  0.00E+00 PX  1.00E+00
 TTTTTTTTTTTTTTTTTTTTTTTTTTTTTT FDIK        TELAPSE       36.34 TCPU       32.65
 INSULATING STATE
 TOP OF VALENCE BANDS -    BAND     56; K    1; EIG -1.6794051E-01 AU
 BOTTOM OF VIRTUAL BANDS - BAND     57; K    4; EIG  3.7662446E-02 AU
 BOTTOM OF VIRTUAL BANDS - BAND     57; K    1; EIG  5.7966777E-02 AU
 TTTTTTTTTTTTTTTTTTTTTTTTTTTTTT PDIG        TELAPSE       39.61 TCPU       35.76
 CHARGE NORMALIZATION FACTOR   1.00000000
 TOTAL ATOMIC CHARGES:
   9.1652388   9.1652388   9.1652388   9.1652388   9.2714831   9.2714831
   9.2714831   9.2714831   9.5632781   9.5632781   9.5632781   9.5632781
 TTTTTTTTTTTTTTTTTTTTTTTTTTTTTT MOQGAD      TELAPSE       39.78 TCPU       35.92
 TTTTTTTTTTTTTTTTTTTTTTTTTTTTTT SHELLX      TELAPSE       42.30 TCPU       38.43
 TTTTTTTTTTTTTTTTTTTTTTTTTTTTTT MONMO3      TELAPSE       47.16 TCPU       43.29
 NUMERICALLY INTEGRATED DENSITY    112.0000546675
 TTTTTTTTTTTTTTTTTTTTTTTTTTTTTT NUMDFT      TELAPSE       48.38 TCPU       44.51
 CYC   2 ETOT(AU) -7.982158952646E+02 DETOT -1.63E-01 tst  2.50E-04 PX  2.77E-02
 TTTTTTTTTTTTTTTTTTTTTTTTTTTTTT FDIK        TELAPSE       49.63 TCPU       45.74
 INSULATING STATE
 TOP OF VALENCE BANDS -    BAND     56; K    1; EIG -1.5852520E-01 AU
 BOTTOM OF VIRTUAL BANDS - BAND     57; K    4; EIG  4.6911165E-02 AU
 BOTTOM OF VIRTUAL BANDS - BAND     57; K    1; EIG  6.6662886E-02 AU
 TTTTTTTTTTTTTTTTTTTTTTTTTTTTTT PDIG        TELAPSE       53.99 TCPU       47.78
 CHARGE NORMALIZATION FACTOR   1.00000000
 TOTAL ATOMIC CHARGES:
   9.2191793   9.2191793   9.2191793   9.2191793   9.2578224   9.2578224
   9.2578224   9.2578224   9.5229983   9.5229983   9.5229983   9.5229983
 TTTTTTTTTTTTTTTTTTTTTTTTTTTTTT MOQGAD      TELAPSE       54.20 TCPU       47.92
 TTTTTTTTTTTTTTTTTTTTTTTTTTTTTT SHELLX      TELAPSE       56.72 TCPU       50.43
 TTTTTTTTTTTTTTTTTTTTTTTTTTTTTT MONMO3      TELAPSE       61.52 TCPU       55.22
 NUMERICALLY INTEGRATED DENSITY    112.0000533368
 TTTTTTTTTTTTTTTTTTTTTTTTTTTTTT NUMDFT      TELAPSE       62.73 TCPU       56.43
 CYC   3 ETOT(AU) -7.982544252304E+02 DETOT -3.85E-02 tst  4.95E-05 PX  1.34E-02
 TTTTTTTTTTTTTTTTTTTTTTTTTTTTTT FDIK        TELAPSE       63.59 TCPU       57.22
 INSULATING STATE
 TOP OF VALENCE BANDS -    BAND     56; K    1; EIG -1.5504544E-01 AU
 BOTTOM OF VIRTUAL BANDS - BAND     57; K    4; EIG  5.3062948E-02 AU
 BOTTOM OF VIRTUAL BANDS - BAND     57; K    1; EIG  7.2659046E-02 AU
 TTTTTTTTTTTTTTTTTTTTTTTTTTTTTT PDIG        TELAPSE       67.32 TCPU       60.91
 CHARGE NORMALIZATION FACTOR   1.00000000
 TOTAL ATOMIC CHARGES:
   9.2383476   9.2383476   9.2383476   9.2383476   9.2563535   9.2563535
   9.2563535   9.2563535   9.5052989   9.5052989   9.5052989   9.5052989
 TTTTTTTTTTTTTTTTTTTTTTTTTTTTTT MOQGAD      TELAPSE       67.72 TCPU       61.26
 TTTTTTTTTTTTTTTTTTTTTTTTTTTTTT SHELLX      TELAPSE       70.23 TCPU       63.77
 TTTTTTTTTTTTTTTTTTTTTTTTTTTTTT MONMO3      TELAPSE       76.11 TCPU       69.64
 NUMERICALLY INTEGRATED DENSITY    112.0000525871
 TTTTTTTTTTTTTTTTTTTTTTTTTTTTTT NUMDFT      TELAPSE       77.32 TCPU       70.84
 CYC   4 ETOT(AU) -7.982650961009E+02 DETOT -1.07E-02 tst  1.09E-05 PX  8.34E-03
 TTTTTTTTTTTTTTTTTTTTTTTTTTTTTT FDIK        TELAPSE       80.67 TCPU       74.08
 INSULATING STATE
 TOP OF VALENCE BANDS -    BAND     56; K    1; EIG -1.5406246E-01 AU
 BOTTOM OF VIRTUAL BANDS - BAND     57; K    4; EIG  5.7228314E-02 AU
 BOTTOM OF VIRTUAL BANDS - BAND     57; K    1; EIG  7.6812560E-02 AU
 TTTTTTTTTTTTTTTTTTTTTTTTTTTTTT PDIG        TELAPSE       87.68 TCPU       81.03
 CHARGE NORMALIZATION FACTOR   1.00000000
 TOTAL ATOMIC CHARGES:
   9.2435597   9.2435597   9.2435597   9.2435597   9.2587486   9.2587486
   9.2587486   9.2587486   9.4976916   9.4976916   9.4976916   9.4976916
 TTTTTTTTTTTTTTTTTTTTTTTTTTTTTT MOQGAD      TELAPSE       87.86 TCPU       81.20
 TTTTTTTTTTTTTTTTTTTTTTTTTTTTTT SHELLX      TELAPSE       90.38 TCPU       83.72
 TTTTTTTTTTTTTTTTTTTTTTTTTTTTTT MONMO3      TELAPSE       95.16 TCPU       88.48
 NUMERICALLY INTEGRATED DENSITY    112.0000521568
 TTTTTTTTTTTTTTTTTTTTTTTTTTTTTT NUMDFT      TELAPSE       96.37 TCPU       89.69
 CYC   5 ETOT(AU) -7.982688322318E+02 DETOT -3.74E-03 tst  3.96E-06 PX  5.56E-03
 MODIFIED BROYDEN: MIX%=  60 W0=  1.000000000000E-04 W=  3.733037244863E+00
 TTTTTTTTTTTTTTTTTTTTTTTTTTTTTT FDIK        TELAPSE       97.10 TCPU       90.38
 INSULATING STATE
 TOP OF VALENCE BANDS -    BAND     56; K    1; EIG -1.5548997E-01 AU
 BOTTOM OF VIRTUAL BANDS - BAND     57; K    4; EIG  6.5399651E-02 AU
 BOTTOM OF VIRTUAL BANDS - BAND     57; K    1; EIG  8.5121381E-02 AU
 TTTTTTTTTTTTTTTTTTTTTTTTTTTTTT PDIG        TELAPSE      101.26 TCPU       94.49
 CHARGE NORMALIZATION FACTOR   1.00000000
 TOTAL ATOMIC CHARGES:
   9.2375538   9.2375538   9.2375538   9.2375538   9.2706828   9.2706828
   9.2706828   9.2706828   9.4917633   9.4917633   9.4917633   9.4917633
 TTTTTTTTTTTTTTTTTTTTTTTTTTTTTT MOQGAD      TELAPSE      101.48 TCPU       94.71
 TTTTTTTTTTTTTTTTTTTTTTTTTTTTTT SHELLX      TELAPSE      104.00 TCPU       97.22
 TTTTTTTTTTTTTTTTTTTTTTTTTTTTTT MONMO3      TELAPSE      108.78 TCPU      102.00
 NUMERICALLY INTEGRATED DENSITY    112.0000514830
 TTTTTTTTTTTTTTTTTTTTTTTTTTTTTT NUMDFT      TELAPSE      110.00 TCPU      103.21
 CYC   6 ETOT(AU) -7.982718143797E+02 DETOT -2.98E-03 tst  1.13E-05 PX  1.10E-02
 MODIFIED BROYDEN: MIX%=  60 W0=  1.000000000000E-04 W=  1.426049257496E+01
 TTTTTTTTTTTTTTTTTTTTTTTTTTTTTT FDIK        TELAPSE      111.26 TCPU      104.43
 INSULATING STATE
 TOP OF VALENCE BANDS -    BAND     56; K    1; EIG -1.5350527E-01 AU
 BOTTOM OF VIRTUAL BANDS - BAND     57; K    4; EIG  6.5221313E-02 AU
 BOTTOM OF VIRTUAL BANDS - BAND     57; K    1; EIG  8.4833110E-02 AU
 TTTTTTTTTTTTTTTTTTTTTTTTTTTTTT PDIG        TELAPSE      114.52 TCPU      107.57
 CHARGE NORMALIZATION FACTOR   1.00000000
 TOTAL ATOMIC CHARGES:
   9.2411411   9.2411411   9.2411411   9.2411411   9.2682611   9.2682611
   9.2682611   9.2682611   9.4905978   9.4905978   9.4905978   9.4905978
 TTTTTTTTTTTTTTTTTTTTTTTTTTTTTT MOQGAD      TELAPSE      114.73 TCPU      107.78
 TTTTTTTTTTTTTTTTTTTTTTTTTTTTTT SHELLX      TELAPSE      117.24 TCPU      110.29
 TTTTTTTTTTTTTTTTTTTTTTTTTTTTTT MONMO3      TELAPSE      122.20 TCPU      115.24
 NUMERICALLY INTEGRATED DENSITY    112.0000514165
 TTTTTTTTTTTTTTTTTTTTTTTTTTTTTT NUMDFT      TELAPSE      123.41 TCPU      116.45
 CYC   7 ETOT(AU) -7.982716846757E+02 DETOT  1.30E-04 tst  3.65E-07 PX  2.15E-03
 MODIFIED BROYDEN: MIX%=  60 W0=  1.000000000000E-04 W=  9.980020418979E+00
 TTTTTTTTTTTTTTTTTTTTTTTTTTTTTT FDIK        TELAPSE      125.06 TCPU      117.92
 INSULATING STATE
 TOP OF VALENCE BANDS -    BAND     56; K    1; EIG -1.5448660E-01 AU
 BOTTOM OF VIRTUAL BANDS - BAND     57; K    4; EIG  6.6073623E-02 AU
 BOTTOM OF VIRTUAL BANDS - BAND     57; K    1; EIG  8.5681082E-02 AU
 TTTTTTTTTTTTTTTTTTTTTTTTTTTTTT PDIG        TELAPSE      129.00 TCPU      121.74
 CHARGE NORMALIZATION FACTOR   1.00000000
 TOTAL ATOMIC CHARGES:
   9.2462578   9.2462578   9.2462578   9.2462578   9.2671695   9.2671695
   9.2671695   9.2671695   9.4865727   9.4865727   9.4865727   9.4865727
 TTTTTTTTTTTTTTTTTTTTTTTTTTTTTT MOQGAD      TELAPSE      129.16 TCPU      121.89
 TTTTTTTTTTTTTTTTTTTTTTTTTTTTTT SHELLX      TELAPSE      131.68 TCPU      124.40
 TTTTTTTTTTTTTTTTTTTTTTTTTTTTTT MONMO3      TELAPSE      136.48 TCPU      129.20
 NUMERICALLY INTEGRATED DENSITY    112.0000513266
 TTTTTTTTTTTTTTTTTTTTTTTTTTTTTT NUMDFT      TELAPSE      137.70 TCPU      130.41
 CYC   8 ETOT(AU) -7.982716697759E+02 DETOT  1.49E-05 tst  1.09E-06 PX  2.14E-03
 MODIFIED BROYDEN: MIX%=  60 W0=  1.000000000000E-04 W=  1.444444804261E+01
 TTTTTTTTTTTTTTTTTTTTTTTTTTTTTT FDIK        TELAPSE      138.84 TCPU      131.45
 INSULATING STATE
 TOP OF VALENCE BANDS -    BAND     56; K    1; EIG -1.5745401E-01 AU
 BOTTOM OF VIRTUAL BANDS - BAND     57; K    4; EIG  6.6731071E-02 AU
 BOTTOM OF VIRTUAL BANDS - BAND     57; K    1; EIG  8.6511181E-02 AU
 TTTTTTTTTTTTTTTTTTTTTTTTTTTTTT PDIG        TELAPSE      142.55 TCPU      135.07
 CHARGE NORMALIZATION FACTOR   1.00000000
 TOTAL ATOMIC CHARGES:
   9.2382390   9.2382390   9.2382390   9.2382390   9.2725987   9.2725987
   9.2725987   9.2725987   9.4891623   9.4891623   9.4891623   9.4891623
 TTTTTTTTTTTTTTTTTTTTTTTTTTTTTT MOQGAD      TELAPSE      142.70 TCPU      135.22
 TTTTTTTTTTTTTTTTTTTTTTTTTTTTTT SHELLX      TELAPSE      145.21 TCPU      137.73
 TTTTTTTTTTTTTTTTTTTTTTTTTTTTTT MONMO3      TELAPSE      150.79 TCPU      143.30
 NUMERICALLY INTEGRATED DENSITY    112.0000513659
 TTTTTTTTTTTTTTTTTTTTTTTTTTTTTT NUMDFT      TELAPSE      152.25 TCPU      144.52
 CYC   9 ETOT(AU) -7.982719023423E+02 DETOT -2.33E-04 tst  9.91E-07 PX  3.55E-03
 MODIFIED BROYDEN: MIX%=  60 W0=  1.000000000000E-04 W=  5.641008698019E+01
 TTTTTTTTTTTTTTTTTTTTTTTTTTTTTT FDIK        TELAPSE      153.40 TCPU      145.65
 INSULATING STATE
 TOP OF VALENCE BANDS -    BAND     56; K    1; EIG -1.5865091E-01 AU
 BOTTOM OF VIRTUAL BANDS - BAND     57; K    4; EIG  6.7029080E-02 AU
 BOTTOM OF VIRTUAL BANDS - BAND     57; K    1; EIG  8.6892049E-02 AU
 TTTTTTTTTTTTTTTTTTTTTTTTTTTTTT PDIG        TELAPSE      157.06 TCPU      149.17
 CHARGE NORMALIZATION FACTOR   1.00000000
 TOTAL ATOMIC CHARGES:
   9.2349923   9.2349923   9.2349923   9.2349923   9.2744800   9.2744800
   9.2744800   9.2744800   9.4905276   9.4905276   9.4905276   9.4905276
 TTTTTTTTTTTTTTTTTTTTTTTTTTTTTT MOQGAD      TELAPSE      157.21 TCPU      149.32
 TTTTTTTTTTTTTTTTTTTTTTTTTTTTTT SHELLX      TELAPSE      159.73 TCPU      151.83
 TTTTTTTTTTTTTTTTTTTTTTTTTTTTTT MONMO3      TELAPSE      165.31 TCPU      157.41
 NUMERICALLY INTEGRATED DENSITY    112.0000514294
 TTTTTTTTTTTTTTTTTTTTTTTTTTTTTT NUMDFT      TELAPSE      166.53 TCPU      158.62
 CYC  10 ETOT(AU) -7.982719105429E+02 DETOT -8.20E-06 tst  2.04E-07 PX  1.55E-03
 MODIFIED BROYDEN: MIX%=  60 W0=  1.000000000000E-04 W=  1.637721473990E+02
 TTTTTTTTTTTTTTTTTTTTTTTTTTTTTT FDIK        TELAPSE      167.96 TCPU      159.88
 INSULATING STATE
 TOP OF VALENCE BANDS -    BAND     56; K    1; EIG -1.5799314E-01 AU
 BOTTOM OF VIRTUAL BANDS - BAND     57; K    4; EIG  6.6875161E-02 AU
 BOTTOM OF VIRTUAL BANDS - BAND     57; K    1; EIG  8.6690103E-02 AU
 TTTTTTTTTTTTTTTTTTTTTTTTTTTTTT PDIG        TELAPSE      171.40 TCPU      162.55
 CHARGE NORMALIZATION FACTOR   1.00000000
 TOTAL ATOMIC CHARGES:
   9.2368811   9.2368811   9.2368811   9.2368811   9.2734014   9.2734014
   9.2734014   9.2734014   9.4897174   9.4897174   9.4897174   9.4897174
 TTTTTTTTTTTTTTTTTTTTTTTTTTTTTT MOQGAD      TELAPSE      171.56 TCPU      162.69
 TTTTTTTTTTTTTTTTTTTTTTTTTTTTTT SHELLX      TELAPSE      174.07 TCPU      165.19
 TTTTTTTTTTTTTTTTTTTTTTTTTTTTTT MONMO3      TELAPSE      178.88 TCPU      169.99
 NUMERICALLY INTEGRATED DENSITY    112.0000514151
 TTTTTTTTTTTTTTTTTTTTTTTTTTTTTT NUMDFT      TELAPSE      180.10 TCPU      171.20
 CYC  11 ETOT(AU) -7.982719147191E+02 DETOT -4.18E-06 tst  6.88E-08 PX  8.20E-04
 MODIFIED BROYDEN: MIX%=  60 W0=  1.000000000000E-04 W=  1.469084261043E+02
 TTTTTTTTTTTTTTTTTTTTTTTTTTTTTT FDIK        TELAPSE      180.95 TCPU      172.01
 INSULATING STATE
 TOP OF VALENCE BANDS -    BAND     56; K    1; EIG -1.6093939E-01 AU
 BOTTOM OF VIRTUAL BANDS - BAND     57; K    4; EIG  6.7551439E-02 AU
 BOTTOM OF VIRTUAL BANDS - BAND     57; K    1; EIG  8.7567127E-02 AU
 TTTTTTTTTTTTTTTTTTTTTTTTTTTTTT PDIG        TELAPSE      184.65 TCPU      174.47
 CHARGE NORMALIZATION FACTOR   1.00000000
 TOTAL ATOMIC CHARGES:
   9.2284798   9.2284798   9.2284798   9.2284798   9.2782153   9.2782153
   9.2782153   9.2782153   9.4933049   9.4933049   9.4933049   9.4933049
 TTTTTTTTTTTTTTTTTTTTTTTTTTTTTT MOQGAD      TELAPSE      184.97 TCPU      174.71
 TTTTTTTTTTTTTTTTTTTTTTTTTTTTTT SHELLX      TELAPSE      187.48 TCPU      177.22
 TTTTTTTTTTTTTTTTTTTTTTTTTTTTTT MONMO3      TELAPSE      192.38 TCPU      182.11
 NUMERICALLY INTEGRATED DENSITY    112.0000514792
 TTTTTTTTTTTTTTTTTTTTTTTTTTTTTT NUMDFT      TELAPSE      193.59 TCPU      183.31
 CYC  12 ETOT(AU) -7.982717568334E+02 DETOT  1.58E-04 tst  1.27E-06 PX  3.64E-03
 MODIFIED BROYDEN: MIX%=  60 W0=  1.000000000000E-04 W=  2.024683099382E+01
 TTTTTTTTTTTTTTTTTTTTTTTTTTTTTT FDIK        TELAPSE      194.84 TCPU      184.32
 INSULATING STATE
 TOP OF VALENCE BANDS -    BAND     56; K    1; EIG -1.5841363E-01 AU
 BOTTOM OF VIRTUAL BANDS - BAND     57; K    4; EIG  6.6962023E-02 AU
 BOTTOM OF VIRTUAL BANDS - BAND     57; K    1; EIG  8.6803321E-02 AU
 TTTTTTTTTTTTTTTTTTTTTTTTTTTTTT PDIG        TELAPSE      198.50 TCPU      187.88
 CHARGE NORMALIZATION FACTOR   1.00000000
 TOTAL ATOMIC CHARGES:
   9.2354919   9.2354919   9.2354919   9.2354919   9.2742358   9.2742358
   9.2742358   9.2742358   9.4902723   9.4902723   9.4902723   9.4902723
 TTTTTTTTTTTTTTTTTTTTTTTTTTTTTT MOQGAD      TELAPSE      198.66 TCPU      188.02
 TTTTTTTTTTTTTTTTTTTTTTTTTTTTTT SHELLX      TELAPSE      201.17 TCPU      190.53
 TTTTTTTTTTTTTTTTTTTTTTTTTTTTTT MONMO3      TELAPSE      206.09 TCPU      195.44
 NUMERICALLY INTEGRATED DENSITY    112.0000514256
 TTTTTTTTTTTTTTTTTTTTTTTTTTTTTT NUMDFT      TELAPSE      207.29 TCPU      196.64
 CYC  13 ETOT(AU) -7.982719144533E+02 DETOT -1.58E-04 tst  9.65E-07 PX  3.13E-03
 MODIFIED BROYDEN: MIX%=  60 W0=  1.000000000000E-04 W=  8.087827579812E+02
 TTTTTTTTTTTTTTTTTTTTTTTTTTTTTT FDIK        TELAPSE      208.32 TCPU      197.61
 INSULATING STATE
 TOP OF VALENCE BANDS -    BAND     56; K    1; EIG -1.5833596E-01 AU
 BOTTOM OF VIRTUAL BANDS - BAND     57; K    4; EIG  6.6963664E-02 AU
 BOTTOM OF VIRTUAL BANDS - BAND     57; K    1; EIG  8.6803555E-02 AU
 TTTTTTTTTTTTTTTTTTTTTTTTTTTTTT PDIG        TELAPSE      211.11 TCPU      200.26
 CHARGE NORMALIZATION FACTOR   1.00000000
 TOTAL ATOMIC CHARGES:
   9.2357849   9.2357849   9.2357849   9.2357849   9.2739827   9.2739827
   9.2739827   9.2739827   9.4902324   9.4902324   9.4902324   9.4902324
 TTTTTTTTTTTTTTTTTTTTTTTTTTTTTT MOQGAD      TELAPSE      211.28 TCPU      200.43
 TTTTTTTTTTTTTTTTTTTTTTTTTTTTTT SHELLX      TELAPSE      213.79 TCPU      202.94
 TTTTTTTTTTTTTTTTTTTTTTTTTTTTTT MONMO3      TELAPSE      218.56 TCPU      207.70
 NUMERICALLY INTEGRATED DENSITY    112.0000514254
 TTTTTTTTTTTTTTTTTTTTTTTTTTTTTT NUMDFT      TELAPSE      219.79 TCPU      208.92
 CYC  14 ETOT(AU) -7.982719147909E+02 DETOT -3.38E-07 tst  5.13E-09 PX  6.80E-05
 MODIFIED BROYDEN: MIX%=  60 W0=  1.000000000000E-04 W=  2.035906189965E+03
 TTTTTTTTTTTTTTTTTTTTTTTTTTTTTT FDIK        TELAPSE      220.62 TCPU      209.74
 INSULATING STATE
 TOP OF VALENCE BANDS -    BAND     56; K    1; EIG -1.5835997E-01 AU
 BOTTOM OF VIRTUAL BANDS - BAND     57; K    4; EIG  6.6962254E-02 AU
 BOTTOM OF VIRTUAL BANDS - BAND     57; K    1; EIG  8.6800650E-02 AU
 TTTTTTTTTTTTTTTTTTTTTTTTTTTTTT PDIG        TELAPSE      225.67 TCPU      214.72
 CHARGE NORMALIZATION FACTOR   1.00000000
 TOTAL ATOMIC CHARGES:
   9.2357722   9.2357722   9.2357722   9.2357722   9.2740559   9.2740559
   9.2740559   9.2740559   9.4901720   9.4901720   9.4901720   9.4901720
 TTTTTTTTTTTTTTTTTTTTTTTTTTTTTT MOQGAD      TELAPSE      226.76 TCPU      215.81
 TTTTTTTTTTTTTTTTTTTTTTTTTTTTTT SHELLX      TELAPSE      229.27 TCPU      218.32
 TTTTTTTTTTTTTTTTTTTTTTTTTTTTTT MONMO3      TELAPSE      234.08 TCPU      223.12
 NUMERICALLY INTEGRATED DENSITY    112.0000514235
 TTTTTTTTTTTTTTTTTTTTTTTTTTTTTT NUMDFT      TELAPSE      235.29 TCPU      224.32
 CYC  15 ETOT(AU) -7.982719148335E+02 DETOT -4.26E-08 tst  1.25E-10 PX  1.63E-05
 MODIFIED BROYDEN: MIX%=  60 W0=  1.000000000000E-04 W=  6.030591361968E+03
 TTTTTTTTTTTTTTTTTTTTTTTTTTTTTT FDIK        TELAPSE      236.81 TCPU      225.57
 INSULATING STATE
 TOP OF VALENCE BANDS -    BAND     56; K    1; EIG -1.5835877E-01 AU
 BOTTOM OF VIRTUAL BANDS - BAND     57; K    4; EIG  6.6959360E-02 AU
 BOTTOM OF VIRTUAL BANDS - BAND     57; K    1; EIG  8.6798497E-02 AU
 TTTTTTTTTTTTTTTTTTTTTTTTTTTTTT PDIG        TELAPSE      240.38 TCPU      229.05
 CHARGE NORMALIZATION FACTOR   1.00000000
 TOTAL ATOMIC CHARGES:
   9.2357589   9.2357589   9.2357589   9.2357589   9.2740460   9.2740460
   9.2740460   9.2740460   9.4901951   9.4901951   9.4901951   9.4901951
 TTTTTTTTTTTTTTTTTTTTTTTTTTTTTT MOQGAD      TELAPSE      240.51 TCPU      229.18
 TTTTTTTTTTTTTTTTTTTTTTTTTTTTTT SHELLX      TELAPSE      243.02 TCPU      231.69
 TTTTTTTTTTTTTTTTTTTTTTTTTTTTTT MONMO3      TELAPSE      247.77 TCPU      236.43
 NUMERICALLY INTEGRATED DENSITY    112.0000514240
 TTTTTTTTTTTTTTTTTTTTTTTTTTTTTT NUMDFT      TELAPSE      248.98 TCPU      237.63
 CYC  16 ETOT(AU) -7.982719148573E+02 DETOT -2.38E-08 tst  1.16E-11 PX  7.29E-06
 MODIFIED BROYDEN: MIX%=  60 W0=  1.000000000000E-04 W=  5.536053810514E+04
 TTTTTTTTTTTTTTTTTTTTTTTTTTTTTT FDIK        TELAPSE      250.12 TCPU      238.74
 INSULATING STATE
 TOP OF VALENCE BANDS -    BAND     56; K    1; EIG -1.5835892E-01 AU
 BOTTOM OF VIRTUAL BANDS - BAND     57; K    4; EIG  6.6959458E-02 AU
 BOTTOM OF VIRTUAL BANDS - BAND     57; K    1; EIG  8.6798663E-02 AU
 TTTTTTTTTTTTTTTTTTTTTTTTTTTTTT PDIG        TELAPSE      254.03 TCPU      242.44
 CHARGE NORMALIZATION FACTOR   1.00000000
 TOTAL ATOMIC CHARGES:
   9.2357558   9.2357558   9.2357558   9.2357558   9.2740483   9.2740483
   9.2740483   9.2740483   9.4901959   9.4901959   9.4901959   9.4901959
 TTTTTTTTTTTTTTTTTTTTTTTTTTTTTT MOQGAD      TELAPSE      254.18 TCPU      242.58
 TTTTTTTTTTTTTTTTTTTTTTTTTTTTTT SHELLX      TELAPSE      256.70 TCPU      245.10
 TTTTTTTTTTTTTTTTTTTTTTTTTTTTTT MONMO3      TELAPSE      261.50 TCPU      249.88
 NUMERICALLY INTEGRATED DENSITY    112.0000514241
 TTTTTTTTTTTTTTTTTTTTTTTTTTTTTT NUMDFT      TELAPSE      262.70 TCPU      251.09
 CYC  17 ETOT(AU) -7.982719148634E+02 DETOT -6.15E-09 tst  2.50E-13 PX  2.01E-06
 MODIFIED BROYDEN: MIX%=  60 W0=  1.000000000000E-04 W=  2.233511350131E+05
 TTTTTTTTTTTTTTTTTTTTTTTTTTTTTT FDIK        TELAPSE      263.93 TCPU      252.29
 INSULATING STATE
 TOP OF VALENCE BANDS -    BAND     56; K    1; EIG -1.5835890E-01 AU
 BOTTOM OF VIRTUAL BANDS - BAND     57; K    4; EIG  6.6959512E-02 AU
 BOTTOM OF VIRTUAL BANDS - BAND     57; K    1; EIG  8.6798719E-02 AU
 TTTTTTTTTTTTTTTTTTTTTTTTTTTTTT PDIG        TELAPSE      267.92 TCPU      256.22
 CHARGE NORMALIZATION FACTOR   1.00000000
 TOTAL ATOMIC CHARGES:
   9.2357553   9.2357553   9.2357553   9.2357553   9.2740486   9.2740486
   9.2740486   9.2740486   9.4901961   9.4901961   9.4901961   9.4901961
 TTTTTTTTTTTTTTTTTTTTTTTTTTTTTT MOQGAD      TELAPSE      268.14 TCPU      256.44
 TTTTTTTTTTTTTTTTTTTTTTTTTTTTTT SHELLX      TELAPSE      270.65 TCPU      258.95
 TTTTTTTTTTTTTTTTTTTTTTTTTTTTTT MONMO3      TELAPSE      275.44 TCPU      263.73
 NUMERICALLY INTEGRATED DENSITY    112.0000514241
 TTTTTTTTTTTTTTTTTTTTTTTTTTTTTT NUMDFT      TELAPSE      276.64 TCPU      264.92
 CYC  18 ETOT(AU) -7.982719148646E+02 DETOT -1.16E-09 tst  2.23E-14 PX  6.67E-07
 MODIFIED BROYDEN: MIX%=  60 W0=  1.000000000000E-04 W=  7.057287187377E+05
 TTTTTTTTTTTTTTTTTTTTTTTTTTTTTT FDIK        TELAPSE      277.82 TCPU      266.04
 INSULATING STATE
 TOP OF VALENCE BANDS -    BAND     56; K    1; EIG -1.5835888E-01 AU
 BOTTOM OF VIRTUAL BANDS - BAND     57; K    4; EIG  6.6959510E-02 AU
 BOTTOM OF VIRTUAL BANDS - BAND     57; K    1; EIG  8.6798708E-02 AU
 TTTTTTTTTTTTTTTTTTTTTTTTTTTTTT PDIG        TELAPSE      281.82 TCPU      269.99
 CHARGE NORMALIZATION FACTOR   1.00000000
 TOTAL ATOMIC CHARGES:
   9.2357553   9.2357553   9.2357553   9.2357553   9.2740486   9.2740486
   9.2740486   9.2740486   9.4901961   9.4901961   9.4901961   9.4901961
 TTTTTTTTTTTTTTTTTTTTTTTTTTTTTT MOQGAD      TELAPSE      282.05 TCPU      270.21
 TTTTTTTTTTTTTTTTTTTTTTTTTTTTTT SHELLX      TELAPSE      284.56 TCPU      272.72
 TTTTTTTTTTTTTTTTTTTTTTTTTTTTTT MONMO3      TELAPSE      289.31 TCPU      277.46
 NUMERICALLY INTEGRATED DENSITY    112.0000514241
 TTTTTTTTTTTTTTTTTTTTTTTTTTTTTT NUMDFT      TELAPSE      290.51 TCPU      278.66
 CYC  19 ETOT(AU) -7.982719148647E+02 DETOT -7.25E-11 tst  5.50E-15 PX  1.64E-07
 MODIFIED BROYDEN: MIX%=  60 W0=  1.000000000000E-04 W=  4.650198504988E+06
 TTTTTTTTTTTTTTTTTTTTTTTTTTTTTT FDIK        TELAPSE      291.51 TCPU      279.62
 INSULATING STATE
 TOP OF VALENCE BANDS -    BAND     56; K    1; EIG -1.5835884E-01 AU
 BOTTOM OF VIRTUAL BANDS - BAND     57; K    4; EIG  6.6959508E-02 AU
 BOTTOM OF VIRTUAL BANDS - BAND     57; K    1; EIG  8.6798708E-02 AU
 TTTTTTTTTTTTTTTTTTTTTTTTTTTTTT PDIG        TELAPSE      295.06 TCPU      283.02
 CHARGE NORMALIZATION FACTOR   1.00000000
 TOTAL ATOMIC CHARGES:
   9.2357554   9.2357554   9.2357554   9.2357554   9.2740486   9.2740486
   9.2740486   9.2740486   9.4901961   9.4901961   9.4901961   9.4901961
 TTTTTTTTTTTTTTTTTTTTTTTTTTTTTT MOQGAD      TELAPSE      295.21 TCPU      283.17
 TTTTTTTTTTTTTTTTTTTTTTTTTTTTTT SHELLX      TELAPSE      297.71 TCPU      285.67
 +++ ENERGIES IN A.U. +++
 ::: EXT EL-POLE                                  -2.7963113594317E+03
 ::: EXT EL-SPHEROPOLE                             2.9540452117641E+01
 ::: BIELET ZONE E-E                               2.9277322483990E+03
 ::: TOTAL E-E                                     1.6096134108494E+02
 ::: TOTAL E-N + N-E                              -1.2059872801477E+03
 ::: TOTAL N-N                                    -3.3788197525352E+02
 ::: KINETIC ENERGY                                6.5995159022020E+02
 ::: PSEUDO TOTAL   ENERGY                        -7.2295632409607E+02
 ::: VIRIAL COEFFICIENT                            9.5444039821913E-01
 TTTTTTTTTTTTTTTTTTTTTTTTTTTTTT MONMO3      TELAPSE      302.48 TCPU      290.43
 NUMERICALLY INTEGRATED DENSITY    112.0000514241
 TTTTTTTTTTTTTTTTTTTTTTTTTTTTTT NUMDFT      TELAPSE      303.67 TCPU      291.62
 CYC  20 ETOT(AU) -7.982719148647E+02 DETOT -1.71E-11 tst  3.22E-15 PX  1.64E-07

 == SCF ENDED - CONVERGENCE ON ENERGY      E(AU) -7.9827191486467E+02 CYCLES  20


 ENERGY EXPRESSION=HARTREE+FOCK EXCH*0.20000+(BECKE  EXCH)*0.80000+LYP    CORR

 FINITE TEMPERATURE DFT CALCULATION 
 TEMPERATURE      (T)    1.000000000000E-13 HARTREE 
 ENERGY           (E)   -7.982719148647E+02
 FREE ENERGY      (F)   -7.982719148647E+02
 ELECTRON ENTROPY (S)    0.000000000000E+00
 (E(T)+F(T))/2    (E0)  -7.982719148647E+02


 TOTAL ENERGY(DFT)(AU)( 20) -7.9827191486467E+02 DE-1.7E-11 tester 3.2E-15
 TTTTTTTTTTTTTTTTTTTTTTTTTTTTTT EDFT        TELAPSE      304.75 TCPU      292.66
 EIGENVECTORS IN FORTRAN UNIT  8
 TTTTTTTTTTTTTTTTTTTTTTTTTTTTTT END         TELAPSE      305.52 TCPU      293.35
 EEEEEEEEEE TERMINATION  DATE 17 07 2015 TIME 14:49:20.0
NODE    0 CPU TIME =       293.346
    TOTAL CPU TIME =     42093.271
