--------------------------------------------------------------------------
WARNING: Open MPI will create a shared memory backing file in a
directory that appears to be mounted on a network filesystem.
Creating the shared memory backup file on a network file system, such
as NFS or Lustre is not recommended -- it may cause excessive network
traffic to your file servers and/or cause shared memory traffic in
Open MPI to be much slower than expected.

You may want to check what the typical temporary directory is on your
node.  Possible sources of the location of this temporary directory
include the $TEMPDIR, $TEMP, and $TMP environment variables.

Note, too, that system administrators can set a list of filesystems
where Open MPI is disallowed from creating temporary files by settings
the MCA parameter "orte_no_session_dir".

  Local host: r2i4n1
  Fileame:    /ichec/work/scratch/tmp/582002/openmpi-sessions-emehes@r2i4n1_0/27007/1/shared_mem_pool.r2i4n1

You can set the MCA paramter shmem_mmap_enable_nfs_warning to 0 to
disable this message.
--------------------------------------------------------------------------
         240 PROCESSORS WORKING

         
 *******************************************************************************
 *                                                                             *
 *                                CRYSTAL09                                    *
 *                              public : 2.0                                   *
 *                      December 10th, 2012 - parallel executable              *
 *                                                                             *
 *                                                                             *
 *                                                                             *
 *                              MAIN AUTHORS                                   *
 *                                                                             *
 *    R. DOVESI(1,10), V.R. SAUNDERS(2), C. ROETTI(1,10), R. ORLANDO (1,3),    *
 *  C.M. ZICOVICH-WILSON(1,4), F. PASCALE(5), B. CIVALLERI(1,10), K. DOLL(6),  *
 *       N.M. HARRISON(2,7), I. J. BUSH(2), Ph. D'ARCO(8), M. LLUNELL(9)       *
 *                                                                             *
 * (1) THEORETICAL CHEMISTRY GROUP - UNIVERSITA' DI TORINO - TORINO (ITALY)    *
 *      http://www.crystal.unito.it                                            *
 * (2) COMPUTATIONAL SCIENCE & ENGINEERING DEPARTMENT - STFC DARESBURY LABORATO*Y (UK)
 *     http://www.cse.stfc.ac.uk/cmg/CRYSTAL/                                  *
 * (3) UNIVERSITA' DEL PIEMONTE ORIENTALE - ALESSANDRIA (ITALY)                *
 * (4) UNIVERSIDAD AUTONOMA DEL ESTADO DE MORELOS - CUERNAVACA (MEXICO)        *
 * (5) UNIVERSITE' HENRI POINCARE' - NANCY (FRANCE)                            *
 * (6) MPI FUER FESTKOERPERFORSCHUNG - STUTTGART (GERMANY)                     *
 * (7) IMPERIAL COLLEGE - LONDON (UK)                                          *
 * (8) UNIVERSITE' PIERRE ET MARIE CURIE - PARIS (FRANCE)                      *
 * (9) UNIVERSIDAD DE BARCELONA - BARCELONA (SPAIN)                            *
 *(10) NIS - NANOSTRUCTURED INTERFACES AND SURFACES - TORINO (ITALY)           *
 *     http://www.crystal.unito.it                                             *
 *******************************************************************************
 EEEEEEEEEE STARTING  DATE 24 07 2015 TIME 07:47:57.9
 Created with astools                                                            

 CRYSTAL CALCULATION
 (INPUT ACCORDING TO THE INTERNATIONAL TABLES FOR X-RAY CRYSTALLOGRAPHY)
 CRYSTAL FAMILY                       :  TRICLINIC   
 CRYSTAL CLASS  (GROTH - 1921)        :  TRICLINIC PEDIAL                     

 SPACE GROUP (NONCENTROSYMMETRIC)     :  P 1             

 LATTICE PARAMETERS  (ANGSTROMS AND DEGREES) - CONVENTIONAL CELL
        A           B           C        ALPHA        BETA       GAMMA
    10.71344    10.83912    21.91664    90.00000    90.00000    90.00000


 NUMBER OF IRREDUCIBLE ATOMS IN THE CONVENTIONAL CELL:  168

 INPUT COORDINATES

 ATOM AT. N.              COORDINATES
   1   8     4.517500000000E-02  6.610000000000E-02  9.770000000000E-02
   2   8     3.249600000000E-02  5.761900000000E-01  7.436300000000E-02
   3   8     5.122710000000E-01  7.196600000000E-02  7.791300000000E-02
   4   8     5.442700000000E-01  5.492660000000E-01  9.599700000000E-02
   5   8     7.478810000000E-01  1.391340000000E-01  6.792000000000E-03
   6   8     6.382100000000E-01  3.647930000000E-01  4.749600000000E-02
   7   8     4.339660000000E-01  7.130250000000E-01  3.845500000000E-02
   8   8     2.364650000000E-01  8.802400000000E-01  5.786300000000E-02
   9   8     6.510510000000E-01  9.067820000000E-01  2.000200000000E-02
  10   8     8.443930000000E-01  7.233160000000E-01  4.924800000000E-02
  11   8     3.117890000000E-01  2.020800000000E-01  4.493700000000E-02
  12   8     1.533530000000E-01  4.429030000000E-01  5.495190000000E-01
  13   8     1.443940000000E-01  9.038950000000E-01  5.680350000000E-01
  14   8     6.653400000000E-01  3.829060000000E-01  5.413290000000E-01
  15   8     6.786030000000E-01  9.375330000000E-01  5.498330000000E-01
  16   8     7.423990000000E-01  5.464840000000E-01  6.012870000000E-01
  17   8     7.908700000000E-02  1.910850000000E-01  6.437790000000E-01
  18   8     3.609860000000E-01  2.671090000000E-01  6.952890000000E-01
  19   8     3.525190000000E-01  3.708300000000E-02  6.693760000000E-01
  20   8     4.446430000000E-01  7.094630000000E-01  5.673710000000E-01
  21   8     5.437510000000E-01  4.794420000000E-01  6.633120000000E-01
  22   8     2.967560000000E-01  5.162790000000E-01  6.594510000000E-01
  23   8     8.773970000000E-01  3.650700000000E-01  6.039390000000E-01
  24   8     5.739260000000E-01  1.025590000000E-01  5.996460000000E-01
  25   8     1.011913000000E+00  6.638250000000E-01  5.823500000000E-01
  26   8     9.359020000000E-01  9.744090000000E-01  6.001420000000E-01
  27   8     7.634750000000E-01  7.716070000000E-01  6.129040000000E-01
  28   8     2.953460000000E-01  5.841300000000E-02  8.885650000000E-01
  29   8     8.123730000000E-01  7.994820000000E-01  7.986760000000E-01
  30   8     4.217630000000E-01  9.114130000000E-01  9.447600000000E-01
  31   8     5.412980000000E-01  4.287800000000E-01  7.891070000000E-01
  32   8     2.467150000000E-01  2.905200000000E-02  7.618740000000E-01
  33   8     2.720970000000E-01  3.156400000000E-01  7.978880000000E-01
  34   8     6.081000000000E-01  2.641310000000E-01  7.135430000000E-01
  35   8     3.205200000000E-01  5.273750000000E-01  1.295700000000E-02
  36   8     1.051610000000E-01  5.396940000000E-01  8.183310000000E-01
  37   8     9.516000000000E-03  4.984000000000E-03  8.507050000000E-01
  38   8     8.502570000000E-01  2.820680000000E-01  7.786260000000E-01
  39   8     8.047950000000E-01  4.435670000000E-01  7.017130000000E-01
  40   8     7.896780000000E-01  2.500590000000E-01  9.051470000000E-01
  41   8     9.956780000000E-01  9.044370000000E-01  7.107090000000E-01
  42   8     3.115320000000E-01  5.848320000000E-01  7.629910000000E-01
  43   8     1.733200000000E-02  5.182870000000E-01  9.240950000000E-01
  44   8     2.096060000000E-01  7.817460000000E-01  6.835890000000E-01
  45   8     7.334380000000E-01  9.536180000000E-01  7.183420000000E-01
  46   8     7.117000000000E-02  7.450090000000E-01  9.849020000000E-01
  47   8     3.421610000000E-01  5.178790000000E-01  8.760490000000E-01
  48   8     1.045390000000E-01  7.887090000000E-01  8.422070000000E-01
  49   8     2.847140000000E-01  7.113000000000E-01  9.287930000000E-01
  50   8     7.689950000000E-01  5.106190000000E-01  8.488530000000E-01
  51   8     8.003860000000E-01  4.916370000000E-01 -3.898000000000E-03
  52   8     1.190520000000E-01  7.996700000000E-02  9.860980000000E-01
  53   8     9.126400000000E-02  3.938520000000E-01  7.097080000000E-01
  54   8     5.476260000000E-01  1.236220000000E-01  9.294070000000E-01
  55   8     6.813190000000E-01  6.669350000000E-01  7.118030000000E-01
  56   8     6.201130000000E-01  9.007670000000E-01  8.885830000000E-01
  57   8     5.281880000000E-01  1.664510000000E-01  8.121200000000E-01
  58   8     9.989620000000E-01  6.532760000000E-01  6.973740000000E-01
  59   8     8.568680000000E-01  6.988360000000E-01  9.246310000000E-01
  60   8     2.852500000000E-02  1.583190000000E-01  7.556170000000E-01
  61   8     2.691470000000E-01  3.126250000000E-01  9.421880000000E-01
  62   8     5.821550000000E-01  6.386130000000E-01  9.448420000000E-01
  63   8     7.873180000000E-01  7.822300000000E-02  8.348430000000E-01
  64   8     3.348260000000E-01  8.318570000000E-01  8.221240000000E-01
  65   8     5.041570000000E-01  7.979310000000E-01  6.837440000000E-01
  66   8     8.417880000000E-01  9.268010000000E-01  9.393520000000E-01
  67   8     9.479230000000E-01  2.707820000000E-01  3.363900000000E-02
  68   8     5.578750000000E-01  6.899400000000E-01  8.264270000000E-01
  69   8     5.555490000000E-01  3.984510000000E-01  9.359570000000E-01
  70   8     4.996830000000E-01  9.566660000000E-01  7.700780000000E-01
  71   8     7.926350000000E-01  1.863740000000E-01  6.539380000000E-01
  72   8     5.586300000000E-02  2.723030000000E-01  9.010740000000E-01
  73  14     1.511830000000E-01  4.468410000000E-01  8.963800000000E-02
  74  14     4.018320000000E-01  1.665330000000E-01  1.059000000000E-01
  75  14     5.823800000000E-02  3.259520000000E-01  1.668610000000E-01
  76  14     2.899600000000E-01  5.160700000000E-02  1.748300000000E-01
  77  14     1.662290000000E-01  1.876400000000E-01  2.287340000000E-01
  78  14     3.967540000000E-01  4.451830000000E-01  2.268180000000E-01
  79  14     1.482250000000E-01  9.526900000000E-01  1.138440000000E-01
  80  14     4.504170000000E-01  6.781200000000E-01  1.126600000000E-01
  81  14     3.003000000000E-02  8.139120000000E-01  1.684730000000E-01
  82  14     2.792980000000E-01  5.702820000000E-01  1.573650000000E-01
  83  14     1.629600000000E-01  6.878800000000E-01  2.263530000000E-01
  84  14     4.261680000000E-01  9.229780000000E-01  2.265280000000E-01
  85  14     6.397680000000E-01  4.265000000000E-01  1.179940000000E-01
  86  14     9.514500000000E-01  1.891410000000E-01  1.057620000000E-01
  87  14     5.121790000000E-01  3.009790000000E-01  1.728330000000E-01
  88  14     7.815820000000E-01  7.909800000000E-02  1.500600000000E-01
  89  14     6.595130000000E-01  1.816320000000E-01  2.251680000000E-01
  90  14     9.219050000000E-01  4.258750000000E-01  2.308810000000E-01
  91  14     6.335200000000E-01  9.778270000000E-01  8.635400000000E-02
  92  14     9.170790000000E-01  6.750350000000E-01  1.119960000000E-01
  93  14     5.661160000000E-01  8.266340000000E-01  1.597610000000E-01
  94  14     7.963130000000E-01  5.398380000000E-01  1.667310000000E-01
  95  14     6.756910000000E-01  6.834040000000E-01  2.205300000000E-01
  96  14     8.994730000000E-01  9.503030000000E-01  2.198760000000E-01
  97  14     3.602900000000E-02  6.047300000000E-02  2.857520000000E-01
  98  14     2.852700000000E-01  3.110620000000E-01  2.906040000000E-01
  99  14     4.742800000000E-02  5.537950000000E-01  2.886660000000E-01
 100  14     2.951080000000E-01  8.055190000000E-01  2.881540000000E-01
 101  14     5.403500000000E-01  5.322600000000E-02  2.886010000000E-01
 102  14     7.908930000000E-01  3.007870000000E-01  2.879920000000E-01
 103  14     5.435540000000E-01  5.627320000000E-01  2.817030000000E-01
 104  14     7.932970000000E-01  8.112170000000E-01  2.826790000000E-01
 105  14     1.596650000000E-01  4.245770000000E-01  3.553250000000E-01
 106  14     4.099660000000E-01  1.787270000000E-01  3.484800000000E-01
 107  14     3.398100000000E-02  2.968420000000E-01  4.194500000000E-01
 108  14     2.799540000000E-01  6.154600000000E-02  4.153610000000E-01
 109  14     1.506890000000E-01  1.710120000000E-01  4.861230000000E-01
 110  14     4.050160000000E-01  4.041820000000E-01  4.719160000000E-01
 111  14     1.659850000000E-01  9.343740000000E-01  3.475690000000E-01
 112  14     4.194630000000E-01  6.772340000000E-01  3.477040000000E-01
 113  14     5.484100000000E-02  7.945850000000E-01  4.079070000000E-01
 114  14     3.050780000000E-01  5.422180000000E-01  4.079810000000E-01
 115  14     1.999160000000E-01  6.839940000000E-01  4.672050000000E-01
 116  14     4.101310000000E-01  9.346890000000E-01  4.758780000000E-01
 117  14     6.647640000000E-01  4.331630000000E-01  3.449350000000E-01
 118  14     9.151770000000E-01  1.788690000000E-01  3.515210000000E-01
 119  14     5.401500000000E-01  3.027230000000E-01  4.054260000000E-01
 120  14     7.969420000000E-01  3.933200000000E-02  4.075380000000E-01
 121  14     6.673770000000E-01  1.698970000000E-01  4.593510000000E-01
 122  14     9.314030000000E-01  4.667890000000E-01  4.646570000000E-01
 123  14     6.649220000000E-01  9.240390000000E-01  3.471690000000E-01
 124  14     9.230360000000E-01  6.875660000000E-01  3.424280000000E-01
 125  14     5.358150000000E-01  8.081490000000E-01  4.113440000000E-01
 126  14     7.924210000000E-01  5.683180000000E-01  4.017760000000E-01
 127  14     6.589860000000E-01  6.702720000000E-01  4.689750000000E-01
 128  14     9.137890000000E-01  9.016300000000E-01  4.683720000000E-01
 129  14     3.564100000000E-02  1.002346000000E+00  5.390680000000E-01
 130  14     2.611510000000E-01  3.220410000000E-01  5.464620000000E-01
 131  14     7.634500000000E-02  5.681310000000E-01  5.284560000000E-01
 132  14     3.230440000000E-01  7.872910000000E-01  5.394870000000E-01
 133  14     5.663810000000E-01  4.572700000000E-02  5.270560000000E-01
 134  14     8.110810000000E-01  4.401520000000E-01  5.475730000000E-01
 135  14     5.549650000000E-01  5.144860000000E-01  5.249980000000E-01
 136  14     7.647270000000E-01  8.066010000000E-01  5.356140000000E-01
 137 272     2.739310000000E-01  9.855620000000E-01 -1.902200000000E-02
 138 272     1.261060000000E-01  2.507860000000E-01  9.902700000000E-01
 139 272     2.493980000000E-01  6.938460000000E-01  1.307800000000E-02
 140 272     5.014940000000E-01  5.173320000000E-01  7.317000000000E-03
 141 272     9.372740000000E-01  6.009090000000E-01  9.946030000000E-01
 142 272     7.286460000000E-01  2.538100000000E-02  6.335840000000E-01
 143 272     5.682590000000E-01  6.486370000000E-01  6.263440000000E-01
 144 272     5.433200000000E-02  8.205540000000E-01  6.356590000000E-01
 145 272     6.917060000000E-01  3.581950000000E-01  6.458090000000E-01
 146 272    -1.395000000000E-03  8.389960000000E-01  9.174010000000E-01
 147 272     7.019950000000E-01  7.991850000000E-01  9.553750000000E-01
 148 272     4.614990000000E-01  7.584510000000E-01  9.001080000000E-01
 149 272     7.832110000000E-01  3.132420000000E-01  9.918530000000E-01
 150 272     1.888520000000E-01  9.562010000000E-01  8.364940000000E-01
 151 272     7.265510000000E-01  6.952200000000E-02  9.272450000000E-01
 152 272     1.599740000000E-01  5.604900000000E-01  7.096270000000E-01
 153 272     2.512780000000E-01  6.654950000000E-01  8.389650000000E-01
 154 272     2.004470000000E-01  1.748550000000E-01  7.062790000000E-01
 155 272     6.345140000000E-01  8.051750000000E-01  7.639900000000E-01
 156 272     4.837700000000E-01  1.288040000000E-01  7.224300000000E-01
 157 272     2.081630000000E-01  3.948430000000E-01  8.650660000000E-01
 158 272     9.505570000000E-01  2.824300000000E-01  6.895740000000E-01
 159 272     5.906100000000E-01  5.123360000000E-01  8.637990000000E-01
 160 272     8.309620000000E-01  6.154390000000E-01  6.712870000000E-01
 161 272     9.330320000000E-01  5.891440000000E-01  8.564420000000E-01
 162 272     9.402040000000E-01  1.892350000000E-01  8.411420000000E-01
 163 272     3.522030000000E-01  8.822500000000E-01  7.117680000000E-01
 164 272     6.677880000000E-01  2.854590000000E-01  8.023680000000E-01
 165 272     4.391510000000E-01  2.629860000000E-01  9.629650000000E-01
 166 272     8.831930000000E-01  9.514040000000E-01  7.720650000000E-01
 167 272     4.055110000000E-01  4.354050000000E-01  7.202010000000E-01
 168 272     4.707530000000E-01  1.613600000000E-02  8.643880000000E-01

 *******************************************************************************

 << INFORMATION >>: FROM NOW ON, ALL COORDINATES REFER TO THE PRIMITIVE CELL

 *******************************************************************************

 LATTICE PARAMETERS  (ANGSTROMS AND DEGREES) - PRIMITIVE CELL
       A          B          C         ALPHA     BETA     GAMMA        VOLUME
   10.71344   10.83912   21.91664    90.00000  90.00000  90.00000   2545.053867

 COORDINATES OF THE EQUIVALENT ATOMS (FRACTIONAL UNITS)

 N. ATOM EQUIV AT. N.          X                  Y                  Z

   1   1   1    8 O     4.51750000000E-02  6.61000000000E-02  9.77000000000E-02

   2   2   1    8 O     3.24960000000E-02 -4.23810000000E-01  7.43630000000E-02

   3   3   1    8 O    -4.87729000000E-01  7.19660000000E-02  7.79130000000E-02

   4   4   1    8 O    -4.55730000000E-01 -4.50734000000E-01  9.59970000000E-02

   5   5   1    8 O    -2.52119000000E-01  1.39134000000E-01  6.79200000000E-03

   6   6   1    8 O    -3.61790000000E-01  3.64793000000E-01  4.74960000000E-02

   7   7   1    8 O     4.33966000000E-01 -2.86975000000E-01  3.84550000000E-02

   8   8   1    8 O     2.36465000000E-01 -1.19760000000E-01  5.78630000000E-02

   9   9   1    8 O    -3.48949000000E-01 -9.32180000000E-02  2.00020000000E-02

  10  10   1    8 O    -1.55607000000E-01 -2.76684000000E-01  4.92480000000E-02

  11  11   1    8 O     3.11789000000E-01  2.02080000000E-01  4.49370000000E-02

  12  12   1    8 O     1.53353000000E-01  4.42903000000E-01 -4.50481000000E-01

  13  13   1    8 O     1.44394000000E-01 -9.61050000000E-02 -4.31965000000E-01

  14  14   1    8 O    -3.34660000000E-01  3.82906000000E-01 -4.58671000000E-01

  15  15   1    8 O    -3.21397000000E-01 -6.24670000000E-02 -4.50167000000E-01

  16  16   1    8 O    -2.57601000000E-01 -4.53516000000E-01 -3.98713000000E-01

  17  17   1    8 O     7.90870000000E-02  1.91085000000E-01 -3.56221000000E-01

  18  18   1    8 O     3.60986000000E-01  2.67109000000E-01 -3.04711000000E-01

  19  19   1    8 O     3.52519000000E-01  3.70830000000E-02 -3.30624000000E-01

  20  20   1    8 O     4.44643000000E-01 -2.90537000000E-01 -4.32629000000E-01

  21  21   1    8 O    -4.56249000000E-01  4.79442000000E-01 -3.36688000000E-01

  22  22   1    8 O     2.96756000000E-01 -4.83721000000E-01 -3.40549000000E-01

  23  23   1    8 O    -1.22603000000E-01  3.65070000000E-01 -3.96061000000E-01

  24  24   1    8 O    -4.26074000000E-01  1.02559000000E-01 -4.00354000000E-01

  25  25   1    8 O     1.19130000000E-02 -3.36175000000E-01 -4.17650000000E-01

  26  26   1    8 O    -6.40980000000E-02 -2.55910000000E-02 -3.99858000000E-01

  27  27   1    8 O    -2.36525000000E-01 -2.28393000000E-01 -3.87096000000E-01

  28  28   1    8 O     2.95346000000E-01  5.84130000000E-02 -1.11435000000E-01

  29  29   1    8 O    -1.87627000000E-01 -2.00518000000E-01 -2.01324000000E-01

  30  30   1    8 O     4.21763000000E-01 -8.85870000000E-02 -5.52400000000E-02

  31  31   1    8 O    -4.58702000000E-01  4.28780000000E-01 -2.10893000000E-01

  32  32   1    8 O     2.46715000000E-01  2.90520000000E-02 -2.38126000000E-01

  33  33   1    8 O     2.72097000000E-01  3.15640000000E-01 -2.02112000000E-01

  34  34   1    8 O    -3.91900000000E-01  2.64131000000E-01 -2.86457000000E-01

  35  35   1    8 O     3.20520000000E-01 -4.72625000000E-01  1.29570000000E-02

  36  36   1    8 O     1.05161000000E-01 -4.60306000000E-01 -1.81669000000E-01

  37  37   1    8 O     9.51600000000E-03  4.98400000000E-03 -1.49295000000E-01

  38  38   1    8 O    -1.49743000000E-01  2.82068000000E-01 -2.21374000000E-01

  39  39   1    8 O    -1.95205000000E-01  4.43567000000E-01 -2.98287000000E-01

  40  40   1    8 O    -2.10322000000E-01  2.50059000000E-01 -9.48530000000E-02

  41  41   1    8 O    -4.32200000000E-03 -9.55630000000E-02 -2.89291000000E-01

  42  42   1    8 O     3.11532000000E-01 -4.15168000000E-01 -2.37009000000E-01

  43  43   1    8 O     1.73320000000E-02 -4.81713000000E-01 -7.59050000000E-02

  44  44   1    8 O     2.09606000000E-01 -2.18254000000E-01 -3.16411000000E-01

  45  45   1    8 O    -2.66562000000E-01 -4.63820000000E-02 -2.81658000000E-01

  46  46   1    8 O     7.11700000000E-02 -2.54991000000E-01 -1.50980000000E-02

  47  47   1    8 O     3.42161000000E-01 -4.82121000000E-01 -1.23951000000E-01

  48  48   1    8 O     1.04539000000E-01 -2.11291000000E-01 -1.57793000000E-01

  49  49   1    8 O     2.84714000000E-01 -2.88700000000E-01 -7.12070000000E-02

  50  50   1    8 O    -2.31005000000E-01 -4.89381000000E-01 -1.51147000000E-01

  51  51   1    8 O    -1.99614000000E-01  4.91637000000E-01 -3.89800000000E-03

  52  52   1    8 O     1.19052000000E-01  7.99670000000E-02 -1.39020000000E-02

  53  53   1    8 O     9.12640000000E-02  3.93852000000E-01 -2.90292000000E-01

  54  54   1    8 O    -4.52374000000E-01  1.23622000000E-01 -7.05930000000E-02

  55  55   1    8 O    -3.18681000000E-01 -3.33065000000E-01 -2.88197000000E-01

  56  56   1    8 O    -3.79887000000E-01 -9.92330000000E-02 -1.11417000000E-01

  57  57   1    8 O    -4.71812000000E-01  1.66451000000E-01 -1.87880000000E-01

  58  58   1    8 O    -1.03800000000E-03 -3.46724000000E-01 -3.02626000000E-01

  59  59   1    8 O    -1.43132000000E-01 -3.01164000000E-01 -7.53690000000E-02

  60  60   1    8 O     2.85250000000E-02  1.58319000000E-01 -2.44383000000E-01

  61  61   1    8 O     2.69147000000E-01  3.12625000000E-01 -5.78120000000E-02

  62  62   1    8 O    -4.17845000000E-01 -3.61387000000E-01 -5.51580000000E-02

  63  63   1    8 O    -2.12682000000E-01  7.82230000000E-02 -1.65157000000E-01

  64  64   1    8 O     3.34826000000E-01 -1.68143000000E-01 -1.77876000000E-01

  65  65   1    8 O    -4.95843000000E-01 -2.02069000000E-01 -3.16256000000E-01

  66  66   1    8 O    -1.58212000000E-01 -7.31990000000E-02 -6.06480000000E-02

  67  67   1    8 O    -5.20770000000E-02  2.70782000000E-01  3.36390000000E-02

  68  68   1    8 O    -4.42125000000E-01 -3.10060000000E-01 -1.73573000000E-01

  69  69   1    8 O    -4.44451000000E-01  3.98451000000E-01 -6.40430000000E-02

  70  70   1    8 O     4.99683000000E-01 -4.33340000000E-02 -2.29922000000E-01

  71  71   1    8 O    -2.07365000000E-01  1.86374000000E-01 -3.46062000000E-01

  72  72   1    8 O     5.58630000000E-02  2.72303000000E-01 -9.89260000000E-02

  73  73   1   14 SI    1.51183000000E-01  4.46841000000E-01  8.96380000000E-02

  74  74   1   14 SI    4.01832000000E-01  1.66533000000E-01  1.05900000000E-01

  75  75   1   14 SI    5.82380000000E-02  3.25952000000E-01  1.66861000000E-01

  76  76   1   14 SI    2.89960000000E-01  5.16070000000E-02  1.74830000000E-01

  77  77   1   14 SI    1.66229000000E-01  1.87640000000E-01  2.28734000000E-01

  78  78   1   14 SI    3.96754000000E-01  4.45183000000E-01  2.26818000000E-01

  79  79   1   14 SI    1.48225000000E-01 -4.73100000000E-02  1.13844000000E-01

  80  80   1   14 SI    4.50417000000E-01 -3.21880000000E-01  1.12660000000E-01

  81  81   1   14 SI    3.00300000000E-02 -1.86088000000E-01  1.68473000000E-01

  82  82   1   14 SI    2.79298000000E-01 -4.29718000000E-01  1.57365000000E-01

  83  83   1   14 SI    1.62960000000E-01 -3.12120000000E-01  2.26353000000E-01

  84  84   1   14 SI    4.26168000000E-01 -7.70220000000E-02  2.26528000000E-01

  85  85   1   14 SI   -3.60232000000E-01  4.26500000000E-01  1.17994000000E-01

  86  86   1   14 SI   -4.85500000000E-02  1.89141000000E-01  1.05762000000E-01

  87  87   1   14 SI   -4.87821000000E-01  3.00979000000E-01  1.72833000000E-01

  88  88   1   14 SI   -2.18418000000E-01  7.90980000000E-02  1.50060000000E-01

  89  89   1   14 SI   -3.40487000000E-01  1.81632000000E-01  2.25168000000E-01

  90  90   1   14 SI   -7.80950000000E-02  4.25875000000E-01  2.30881000000E-01

  91  91   1   14 SI   -3.66480000000E-01 -2.21730000000E-02  8.63540000000E-02

  92  92   1   14 SI   -8.29210000000E-02 -3.24965000000E-01  1.11996000000E-01

  93  93   1   14 SI   -4.33884000000E-01 -1.73366000000E-01  1.59761000000E-01

  94  94   1   14 SI   -2.03687000000E-01 -4.60162000000E-01  1.66731000000E-01

  95  95   1   14 SI   -3.24309000000E-01 -3.16596000000E-01  2.20530000000E-01

  96  96   1   14 SI   -1.00527000000E-01 -4.96970000000E-02  2.19876000000E-01

  97  97   1   14 SI    3.60290000000E-02  6.04730000000E-02  2.85752000000E-01

  98  98   1   14 SI    2.85270000000E-01  3.11062000000E-01  2.90604000000E-01

  99  99   1   14 SI    4.74280000000E-02 -4.46205000000E-01  2.88666000000E-01

 100 100   1   14 SI    2.95108000000E-01 -1.94481000000E-01  2.88154000000E-01

 101 101   1   14 SI   -4.59650000000E-01  5.32260000000E-02  2.88601000000E-01

 102 102   1   14 SI   -2.09107000000E-01  3.00787000000E-01  2.87992000000E-01

 103 103   1   14 SI   -4.56446000000E-01 -4.37268000000E-01  2.81703000000E-01

 104 104   1   14 SI   -2.06703000000E-01 -1.88783000000E-01  2.82679000000E-01

 105 105   1   14 SI    1.59665000000E-01  4.24577000000E-01  3.55325000000E-01

 106 106   1   14 SI    4.09966000000E-01  1.78727000000E-01  3.48480000000E-01

 107 107   1   14 SI    3.39810000000E-02  2.96842000000E-01  4.19450000000E-01

 108 108   1   14 SI    2.79954000000E-01  6.15460000000E-02  4.15361000000E-01

 109 109   1   14 SI    1.50689000000E-01  1.71012000000E-01  4.86123000000E-01

 110 110   1   14 SI    4.05016000000E-01  4.04182000000E-01  4.71916000000E-01

 111 111   1   14 SI    1.65985000000E-01 -6.56260000000E-02  3.47569000000E-01

 112 112   1   14 SI    4.19463000000E-01 -3.22766000000E-01  3.47704000000E-01

 113 113   1   14 SI    5.48410000000E-02 -2.05415000000E-01  4.07907000000E-01

 114 114   1   14 SI    3.05078000000E-01 -4.57782000000E-01  4.07981000000E-01

 115 115   1   14 SI    1.99916000000E-01 -3.16006000000E-01  4.67205000000E-01

 116 116   1   14 SI    4.10131000000E-01 -6.53110000000E-02  4.75878000000E-01

 117 117   1   14 SI   -3.35236000000E-01  4.33163000000E-01  3.44935000000E-01

 118 118   1   14 SI   -8.48230000000E-02  1.78869000000E-01  3.51521000000E-01

 119 119   1   14 SI   -4.59850000000E-01  3.02723000000E-01  4.05426000000E-01

 120 120   1   14 SI   -2.03058000000E-01  3.93320000000E-02  4.07538000000E-01

 121 121   1   14 SI   -3.32623000000E-01  1.69897000000E-01  4.59351000000E-01

 122 122   1   14 SI   -6.85970000000E-02  4.66789000000E-01  4.64657000000E-01

 123 123   1   14 SI   -3.35078000000E-01 -7.59610000000E-02  3.47169000000E-01

 124 124   1   14 SI   -7.69640000000E-02 -3.12434000000E-01  3.42428000000E-01

 125 125   1   14 SI   -4.64185000000E-01 -1.91851000000E-01  4.11344000000E-01

 126 126   1   14 SI   -2.07579000000E-01 -4.31682000000E-01  4.01776000000E-01

 127 127   1   14 SI   -3.41014000000E-01 -3.29728000000E-01  4.68975000000E-01

 128 128   1   14 SI   -8.62110000000E-02 -9.83700000000E-02  4.68372000000E-01

 129 129   1   14 SI    3.56410000000E-02  2.34600000000E-03 -4.60932000000E-01

 130 130   1   14 SI    2.61151000000E-01  3.22041000000E-01 -4.53538000000E-01

 131 131   1   14 SI    7.63450000000E-02 -4.31869000000E-01 -4.71544000000E-01

 132 132   1   14 SI    3.23044000000E-01 -2.12709000000E-01 -4.60513000000E-01

 133 133   1   14 SI   -4.33619000000E-01  4.57270000000E-02 -4.72944000000E-01

 134 134   1   14 SI   -1.88919000000E-01  4.40152000000E-01 -4.52427000000E-01

 135 135   1   14 SI   -4.45035000000E-01 -4.85514000000E-01 -4.75002000000E-01

 136 136   1   14 SI   -2.35273000000E-01 -1.93399000000E-01 -4.64386000000E-01

 137 137   1  272 HF    2.73931000000E-01 -1.44380000000E-02 -1.90220000000E-02

 138 138   1  272 HF    1.26106000000E-01  2.50786000000E-01 -9.73000000000E-03

 139 139   1  272 HF    2.49398000000E-01 -3.06154000000E-01  1.30780000000E-02

 140 140   1  272 HF   -4.98506000000E-01 -4.82668000000E-01  7.31700000000E-03

 141 141   1  272 HF   -6.27260000000E-02 -3.99091000000E-01 -5.39700000000E-03

 142 142   1  272 HF   -2.71354000000E-01  2.53810000000E-02 -3.66416000000E-01

 143 143   1  272 HF   -4.31741000000E-01 -3.51363000000E-01 -3.73656000000E-01

 144 144   1  272 HF    5.43320000000E-02 -1.79446000000E-01 -3.64341000000E-01

 145 145   1  272 HF   -3.08294000000E-01  3.58195000000E-01 -3.54191000000E-01

 146 146   1  272 HF   -1.39500000000E-03 -1.61004000000E-01 -8.25990000000E-02

 147 147   1  272 HF   -2.98005000000E-01 -2.00815000000E-01 -4.46250000000E-02

 148 148   1  272 HF    4.61499000000E-01 -2.41549000000E-01 -9.98920000000E-02

 149 149   1  272 HF   -2.16789000000E-01  3.13242000000E-01 -8.14700000000E-03

 150 150   1  272 HF    1.88852000000E-01 -4.37990000000E-02 -1.63506000000E-01

 151 151   1  272 HF   -2.73449000000E-01  6.95220000000E-02 -7.27550000000E-02

 152 152   1  272 HF    1.59974000000E-01 -4.39510000000E-01 -2.90373000000E-01

 153 153   1  272 HF    2.51278000000E-01 -3.34505000000E-01 -1.61035000000E-01

 154 154   1  272 HF    2.00447000000E-01  1.74855000000E-01 -2.93721000000E-01

 155 155   1  272 HF   -3.65486000000E-01 -1.94825000000E-01 -2.36010000000E-01

 156 156   1  272 HF    4.83770000000E-01  1.28804000000E-01 -2.77570000000E-01

 157 157   1  272 HF    2.08163000000E-01  3.94843000000E-01 -1.34934000000E-01

 158 158   1  272 HF   -4.94430000000E-02  2.82430000000E-01 -3.10426000000E-01

 159 159   1  272 HF   -4.09390000000E-01 -4.87664000000E-01 -1.36201000000E-01

 160 160   1  272 HF   -1.69038000000E-01 -3.84561000000E-01 -3.28713000000E-01

 161 161   1  272 HF   -6.69680000000E-02 -4.10856000000E-01 -1.43558000000E-01

 162 162   1  272 HF   -5.97960000000E-02  1.89235000000E-01 -1.58858000000E-01

 163 163   1  272 HF    3.52203000000E-01 -1.17750000000E-01 -2.88232000000E-01

 164 164   1  272 HF   -3.32212000000E-01  2.85459000000E-01 -1.97632000000E-01

 165 165   1  272 HF    4.39151000000E-01  2.62986000000E-01 -3.70350000000E-02

 166 166   1  272 HF   -1.16807000000E-01 -4.85960000000E-02 -2.27935000000E-01

 167 167   1  272 HF    4.05511000000E-01  4.35405000000E-01 -2.79799000000E-01

 168 168   1  272 HF    4.70753000000E-01  1.61360000000E-02 -1.35612000000E-01

 NUMBER OF SYMMETRY OPERATORS         :    1
 *******************************************************************************
 * GEOMETRY EDITING - INPUT COORDINATES ARE GIVEN IN ANGSTROM         
 *******************************************************************************

 GCALCO - MAX INDICES DIRECT LATTICE VECTOR    19    18     9
 NO.OF VECTORS CREATED 6999 STARS 1061 RMAX   306.43263 BOHR

 GEOMETRY FOR WAVE FUNCTION - DIMENSIONALITY OF THE SYSTEM    3
 (NON PERIODIC DIRECTION: LATTICE PARAMETER FORMALLY SET TO 500)
 *******************************************************************************
 LATTICE PARAMETERS (ANGSTROMS AND DEGREES) - BOHR = 0.5291772083 ANGSTROM
 PRIMITIVE CELL - CENTRING CODE 1/0 VOLUME=  2545.053867 - DENSITY  5.677 g/cm^3
         A              B              C           ALPHA      BETA       GAMMA 
    10.71343900    10.83912000    21.91664400    90.000000  90.000000  90.000000
 *******************************************************************************
 ATOMS IN THE ASYMMETRIC UNIT  168 - ATOMS IN THE UNIT CELL:  168
     ATOM              X/A                 Y/B                 Z/C    
 *******************************************************************************
   1 T   8 O     4.517500000000E-02  6.610000000000E-02  9.770000000000E-02
   2 T   8 O     3.249600000000E-02 -4.238100000000E-01  7.436300000000E-02
   3 T   8 O    -4.877290000000E-01  7.196600000000E-02  7.791300000000E-02
   4 T   8 O    -4.557300000000E-01 -4.507340000000E-01  9.599700000000E-02
   5 T   8 O    -2.521190000000E-01  1.391340000000E-01  6.792000000000E-03
   6 T   8 O    -3.617900000000E-01  3.647930000000E-01  4.749600000000E-02
   7 T   8 O     4.339660000000E-01 -2.869750000000E-01  3.845500000000E-02
   8 T   8 O     2.364650000000E-01 -1.197600000000E-01  5.786300000000E-02
   9 T   8 O    -3.489490000000E-01 -9.321800000000E-02  2.000200000000E-02
  10 T   8 O    -1.556070000000E-01 -2.766840000000E-01  4.924800000000E-02
  11 T   8 O     3.117890000000E-01  2.020800000000E-01  4.493700000000E-02
  12 T   8 O     1.533530000000E-01  4.429030000000E-01 -4.504810000000E-01
  13 T   8 O     1.443940000000E-01 -9.610500000000E-02 -4.319650000000E-01
  14 T   8 O    -3.346600000000E-01  3.829060000000E-01 -4.586710000000E-01
  15 T   8 O    -3.213970000000E-01 -6.246700000000E-02 -4.501670000000E-01
  16 T   8 O    -2.576010000000E-01 -4.535160000000E-01 -3.987130000000E-01
  17 T   8 O     7.908700000000E-02  1.910850000000E-01 -3.562210000000E-01
  18 T   8 O     3.609860000000E-01  2.671090000000E-01 -3.047110000000E-01
  19 T   8 O     3.525190000000E-01  3.708300000000E-02 -3.306240000000E-01
  20 T   8 O     4.446430000000E-01 -2.905370000000E-01 -4.326290000000E-01
  21 T   8 O    -4.562490000000E-01  4.794420000000E-01 -3.366880000000E-01
  22 T   8 O     2.967560000000E-01 -4.837210000000E-01 -3.405490000000E-01
  23 T   8 O    -1.226030000000E-01  3.650700000000E-01 -3.960610000000E-01
  24 T   8 O    -4.260740000000E-01  1.025590000000E-01 -4.003540000000E-01
  25 T   8 O     1.191300000000E-02 -3.361750000000E-01 -4.176500000000E-01
  26 T   8 O    -6.409800000000E-02 -2.559100000000E-02 -3.998580000000E-01
  27 T   8 O    -2.365250000000E-01 -2.283930000000E-01 -3.870960000000E-01
  28 T   8 O     2.953460000000E-01  5.841300000000E-02 -1.114350000000E-01
  29 T   8 O    -1.876270000000E-01 -2.005180000000E-01 -2.013240000000E-01
  30 T   8 O     4.217630000000E-01 -8.858700000000E-02 -5.524000000000E-02
  31 T   8 O    -4.587020000000E-01  4.287800000000E-01 -2.108930000000E-01
  32 T   8 O     2.467150000000E-01  2.905200000000E-02 -2.381260000000E-01
  33 T   8 O     2.720970000000E-01  3.156400000000E-01 -2.021120000000E-01
  34 T   8 O    -3.919000000000E-01  2.641310000000E-01 -2.864570000000E-01
  35 T   8 O     3.205200000000E-01 -4.726250000000E-01  1.295700000000E-02
  36 T   8 O     1.051610000000E-01 -4.603060000000E-01 -1.816690000000E-01
  37 T   8 O     9.516000000000E-03  4.984000000000E-03 -1.492950000000E-01
  38 T   8 O    -1.497430000000E-01  2.820680000000E-01 -2.213740000000E-01
  39 T   8 O    -1.952050000000E-01  4.435670000000E-01 -2.982870000000E-01
  40 T   8 O    -2.103220000000E-01  2.500590000000E-01 -9.485300000000E-02
  41 T   8 O    -4.322000000000E-03 -9.556300000000E-02 -2.892910000000E-01
  42 T   8 O     3.115320000000E-01 -4.151680000000E-01 -2.370090000000E-01
  43 T   8 O     1.733200000000E-02 -4.817130000000E-01 -7.590500000000E-02
  44 T   8 O     2.096060000000E-01 -2.182540000000E-01 -3.164110000000E-01
  45 T   8 O    -2.665620000000E-01 -4.638200000000E-02 -2.816580000000E-01
  46 T   8 O     7.117000000000E-02 -2.549910000000E-01 -1.509800000000E-02
  47 T   8 O     3.421610000000E-01 -4.821210000000E-01 -1.239510000000E-01
  48 T   8 O     1.045390000000E-01 -2.112910000000E-01 -1.577930000000E-01
  49 T   8 O     2.847140000000E-01 -2.887000000000E-01 -7.120700000000E-02
  50 T   8 O    -2.310050000000E-01 -4.893810000000E-01 -1.511470000000E-01
  51 T   8 O    -1.996140000000E-01  4.916370000000E-01 -3.898000000000E-03
  52 T   8 O     1.190520000000E-01  7.996700000000E-02 -1.390200000000E-02
  53 T   8 O     9.126400000000E-02  3.938520000000E-01 -2.902920000000E-01
  54 T   8 O    -4.523740000000E-01  1.236220000000E-01 -7.059300000000E-02
  55 T   8 O    -3.186810000000E-01 -3.330650000000E-01 -2.881970000000E-01
  56 T   8 O    -3.798870000000E-01 -9.923300000000E-02 -1.114170000000E-01
  57 T   8 O    -4.718120000000E-01  1.664510000000E-01 -1.878800000000E-01
  58 T   8 O    -1.038000000000E-03 -3.467240000000E-01 -3.026260000000E-01
  59 T   8 O    -1.431320000000E-01 -3.011640000000E-01 -7.536900000000E-02
  60 T   8 O     2.852500000000E-02  1.583190000000E-01 -2.443830000000E-01
  61 T   8 O     2.691470000000E-01  3.126250000000E-01 -5.781200000000E-02
  62 T   8 O    -4.178450000000E-01 -3.613870000000E-01 -5.515800000000E-02
  63 T   8 O    -2.126820000000E-01  7.822300000000E-02 -1.651570000000E-01
  64 T   8 O     3.348260000000E-01 -1.681430000000E-01 -1.778760000000E-01
  65 T   8 O    -4.958430000000E-01 -2.020690000000E-01 -3.162560000000E-01
  66 T   8 O    -1.582120000000E-01 -7.319900000000E-02 -6.064800000000E-02
  67 T   8 O    -5.207700000000E-02  2.707820000000E-01  3.363900000000E-02
  68 T   8 O    -4.421250000000E-01 -3.100600000000E-01 -1.735730000000E-01
  69 T   8 O    -4.444510000000E-01  3.984510000000E-01 -6.404300000000E-02
  70 T   8 O     4.996830000000E-01 -4.333400000000E-02 -2.299220000000E-01
  71 T   8 O    -2.073650000000E-01  1.863740000000E-01 -3.460620000000E-01
  72 T   8 O     5.586300000000E-02  2.723030000000E-01 -9.892600000000E-02
  73 T  14 SI    1.511830000000E-01  4.468410000000E-01  8.963800000000E-02
  74 T  14 SI    4.018320000000E-01  1.665330000000E-01  1.059000000000E-01
  75 T  14 SI    5.823800000000E-02  3.259520000000E-01  1.668610000000E-01
  76 T  14 SI    2.899600000000E-01  5.160700000000E-02  1.748300000000E-01
  77 T  14 SI    1.662290000000E-01  1.876400000000E-01  2.287340000000E-01
  78 T  14 SI    3.967540000000E-01  4.451830000000E-01  2.268180000000E-01
  79 T  14 SI    1.482250000000E-01 -4.731000000000E-02  1.138440000000E-01
  80 T  14 SI    4.504170000000E-01 -3.218800000000E-01  1.126600000000E-01
  81 T  14 SI    3.003000000000E-02 -1.860880000000E-01  1.684730000000E-01
  82 T  14 SI    2.792980000000E-01 -4.297180000000E-01  1.573650000000E-01
  83 T  14 SI    1.629600000000E-01 -3.121200000000E-01  2.263530000000E-01
  84 T  14 SI    4.261680000000E-01 -7.702200000000E-02  2.265280000000E-01
  85 T  14 SI   -3.602320000000E-01  4.265000000000E-01  1.179940000000E-01
  86 T  14 SI   -4.855000000000E-02  1.891410000000E-01  1.057620000000E-01
  87 T  14 SI   -4.878210000000E-01  3.009790000000E-01  1.728330000000E-01
  88 T  14 SI   -2.184180000000E-01  7.909800000000E-02  1.500600000000E-01
  89 T  14 SI   -3.404870000000E-01  1.816320000000E-01  2.251680000000E-01
  90 T  14 SI   -7.809500000000E-02  4.258750000000E-01  2.308810000000E-01
  91 T  14 SI   -3.664800000000E-01 -2.217300000000E-02  8.635400000000E-02
  92 T  14 SI   -8.292100000000E-02 -3.249650000000E-01  1.119960000000E-01
  93 T  14 SI   -4.338840000000E-01 -1.733660000000E-01  1.597610000000E-01
  94 T  14 SI   -2.036870000000E-01 -4.601620000000E-01  1.667310000000E-01
  95 T  14 SI   -3.243090000000E-01 -3.165960000000E-01  2.205300000000E-01
  96 T  14 SI   -1.005270000000E-01 -4.969700000000E-02  2.198760000000E-01
  97 T  14 SI    3.602900000000E-02  6.047300000000E-02  2.857520000000E-01
  98 T  14 SI    2.852700000000E-01  3.110620000000E-01  2.906040000000E-01
  99 T  14 SI    4.742800000000E-02 -4.462050000000E-01  2.886660000000E-01
 100 T  14 SI    2.951080000000E-01 -1.944810000000E-01  2.881540000000E-01
 101 T  14 SI   -4.596500000000E-01  5.322600000000E-02  2.886010000000E-01
 102 T  14 SI   -2.091070000000E-01  3.007870000000E-01  2.879920000000E-01
 103 T  14 SI   -4.564460000000E-01 -4.372680000000E-01  2.817030000000E-01
 104 T  14 SI   -2.067030000000E-01 -1.887830000000E-01  2.826790000000E-01
 105 T  14 SI    1.596650000000E-01  4.245770000000E-01  3.553250000000E-01
 106 T  14 SI    4.099660000000E-01  1.787270000000E-01  3.484800000000E-01
 107 T  14 SI    3.398100000000E-02  2.968420000000E-01  4.194500000000E-01
 108 T  14 SI    2.799540000000E-01  6.154600000000E-02  4.153610000000E-01
 109 T  14 SI    1.506890000000E-01  1.710120000000E-01  4.861230000000E-01
 110 T  14 SI    4.050160000000E-01  4.041820000000E-01  4.719160000000E-01
 111 T  14 SI    1.659850000000E-01 -6.562600000000E-02  3.475690000000E-01
 112 T  14 SI    4.194630000000E-01 -3.227660000000E-01  3.477040000000E-01
 113 T  14 SI    5.484100000000E-02 -2.054150000000E-01  4.079070000000E-01
 114 T  14 SI    3.050780000000E-01 -4.577820000000E-01  4.079810000000E-01
 115 T  14 SI    1.999160000000E-01 -3.160060000000E-01  4.672050000000E-01
 116 T  14 SI    4.101310000000E-01 -6.531100000000E-02  4.758780000000E-01
 117 T  14 SI   -3.352360000000E-01  4.331630000000E-01  3.449350000000E-01
 118 T  14 SI   -8.482300000000E-02  1.788690000000E-01  3.515210000000E-01
 119 T  14 SI   -4.598500000000E-01  3.027230000000E-01  4.054260000000E-01
 120 T  14 SI   -2.030580000000E-01  3.933200000000E-02  4.075380000000E-01
 121 T  14 SI   -3.326230000000E-01  1.698970000000E-01  4.593510000000E-01
 122 T  14 SI   -6.859700000000E-02  4.667890000000E-01  4.646570000000E-01
 123 T  14 SI   -3.350780000000E-01 -7.596100000000E-02  3.471690000000E-01
 124 T  14 SI   -7.696400000000E-02 -3.124340000000E-01  3.424280000000E-01
 125 T  14 SI   -4.641850000000E-01 -1.918510000000E-01  4.113440000000E-01
 126 T  14 SI   -2.075790000000E-01 -4.316820000000E-01  4.017760000000E-01
 127 T  14 SI   -3.410140000000E-01 -3.297280000000E-01  4.689750000000E-01
 128 T  14 SI   -8.621100000000E-02 -9.837000000000E-02  4.683720000000E-01
 129 T  14 SI    3.564100000000E-02  2.346000000000E-03 -4.609320000000E-01
 130 T  14 SI    2.611510000000E-01  3.220410000000E-01 -4.535380000000E-01
 131 T  14 SI    7.634500000000E-02 -4.318690000000E-01 -4.715440000000E-01
 132 T  14 SI    3.230440000000E-01 -2.127090000000E-01 -4.605130000000E-01
 133 T  14 SI   -4.336190000000E-01  4.572700000000E-02 -4.729440000000E-01
 134 T  14 SI   -1.889190000000E-01  4.401520000000E-01 -4.524270000000E-01
 135 T  14 SI   -4.450350000000E-01 -4.855140000000E-01 -4.750020000000E-01
 136 T  14 SI   -2.352730000000E-01 -1.933990000000E-01 -4.643860000000E-01
 137 T 272 HF    2.739310000000E-01 -1.443800000000E-02 -1.902200000000E-02
 138 T 272 HF    1.261060000000E-01  2.507860000000E-01 -9.730000000000E-03
 139 T 272 HF    2.493980000000E-01 -3.061540000000E-01  1.307800000000E-02
 140 T 272 HF   -4.985060000000E-01 -4.826680000000E-01  7.317000000000E-03
 141 T 272 HF   -6.272600000000E-02 -3.990910000000E-01 -5.397000000000E-03
 142 T 272 HF   -2.713540000000E-01  2.538100000000E-02 -3.664160000000E-01
 143 T 272 HF   -4.317410000000E-01 -3.513630000000E-01 -3.736560000000E-01
 144 T 272 HF    5.433200000000E-02 -1.794460000000E-01 -3.643410000000E-01
 145 T 272 HF   -3.082940000000E-01  3.581950000000E-01 -3.541910000000E-01
 146 T 272 HF   -1.395000000000E-03 -1.610040000000E-01 -8.259900000000E-02
 147 T 272 HF   -2.980050000000E-01 -2.008150000000E-01 -4.462500000000E-02
 148 T 272 HF    4.614990000000E-01 -2.415490000000E-01 -9.989200000000E-02
 149 T 272 HF   -2.167890000000E-01  3.132420000000E-01 -8.147000000000E-03
 150 T 272 HF    1.888520000000E-01 -4.379900000000E-02 -1.635060000000E-01
 151 T 272 HF   -2.734490000000E-01  6.952200000000E-02 -7.275500000000E-02
 152 T 272 HF    1.599740000000E-01 -4.395100000000E-01 -2.903730000000E-01
 153 T 272 HF    2.512780000000E-01 -3.345050000000E-01 -1.610350000000E-01
 154 T 272 HF    2.004470000000E-01  1.748550000000E-01 -2.937210000000E-01
 155 T 272 HF   -3.654860000000E-01 -1.948250000000E-01 -2.360100000000E-01
 156 T 272 HF    4.837700000000E-01  1.288040000000E-01 -2.775700000000E-01
 157 T 272 HF    2.081630000000E-01  3.948430000000E-01 -1.349340000000E-01
 158 T 272 HF   -4.944300000000E-02  2.824300000000E-01 -3.104260000000E-01
 159 T 272 HF   -4.093900000000E-01 -4.876640000000E-01 -1.362010000000E-01
 160 T 272 HF   -1.690380000000E-01 -3.845610000000E-01 -3.287130000000E-01
 161 T 272 HF   -6.696800000000E-02 -4.108560000000E-01 -1.435580000000E-01
 162 T 272 HF   -5.979600000000E-02  1.892350000000E-01 -1.588580000000E-01
 163 T 272 HF    3.522030000000E-01 -1.177500000000E-01 -2.882320000000E-01
 164 T 272 HF   -3.322120000000E-01  2.854590000000E-01 -1.976320000000E-01
 165 T 272 HF    4.391510000000E-01  2.629860000000E-01 -3.703500000000E-02
 166 T 272 HF   -1.168070000000E-01 -4.859600000000E-02 -2.279350000000E-01
 167 T 272 HF    4.055110000000E-01  4.354050000000E-01 -2.797990000000E-01
 168 T 272 HF    4.707530000000E-01  1.613600000000E-02 -1.356120000000E-01

 T = ATOM BELONGING TO THE ASYMMETRIC UNIT

 ****   1 SYMMOPS - TRANSLATORS IN FRACTIONAL UNITS
  V INV                   ROTATION MATRICES                       TRANSLATOR
  1  1  1.00  0.00  0.00  0.00  1.00  0.00  0.00  0.00  1.00    0.00  0.00  0.00

 DIRECT LATTICE VECTORS CARTESIAN COMPONENTS (ANGSTROM)
          X                    Y                    Z
   0.107134390000E+02   0.656008938961E-15   0.000000000000E+00
   0.000000000000E+00   0.108391200000E+02   0.000000000000E+00
   0.134200739613E-14   0.134200739613E-14   0.219166440000E+02


 CARTESIAN COORDINATES - PRIMITIVE CELL
 *******************************************************************************
 *      ATOM          X(ANGSTROM)         Y(ANGSTROM)         Z(ANGSTROM)
 *******************************************************************************
   1     8 O     4.839796068250E-01  7.164658320000E-01  2.141256118800E+00
   2     8 O     3.481439137440E-01 -4.593727447200E+00  1.629787397772E+00
   3     8 O    -5.225254890031E+00  7.800481099200E-01  1.707591483972E+00
   4     8 O    -4.882435555470E+00 -4.885559914080E+00  2.103932074068E+00
   5     8 O    -2.701061527241E+00  1.508090122080E+00  1.488578460480E-01
   6     8 O    -3.876015095810E+00  3.954035102160E+00  1.040952923424E+00
   7     8 O     4.649268269074E+00 -3.110556462000E+00  8.428045450200E-01
   8     8 O     2.533353353135E+00 -1.298093011200E+00  1.268162771772E+00
   9     8 O    -3.738443825611E+00 -1.010401088160E+00  4.383767132880E-01
  10     8 O    -1.667086102473E+00 -2.999011078080E+00  1.079350883712E+00
  11     8 O     3.340332432371E+00  2.190369369600E+00  9.848682314280E-01
  12     8 O     1.642938010967E+00  4.800678765360E+00 -9.873031705764E+00
  13     8 O     1.546956310966E+00 -1.041693627600E+00 -9.467223125460E+00
  14     8 O    -3.585359495740E+00  4.150364082720E+00 -1.005252902012E+01
  15     8 O    -3.443267154283E+00 -6.770873090400E-01 -9.866149879548E+00
  16     8 O    -2.759792599839E+00 -4.915714345920E+00 -8.738450879172E+00
  17     8 O     8.472937501930E-01  2.071193245200E+00 -7.807168842324E+00
  18     8 O     3.867401490854E+00  2.895226504080E+00 -6.678242509884E+00
  19     8 O     3.776690802841E+00  4.019470869600E-01 -7.246168505856E+00
  20     8 O     4.763655657277E+00 -3.149165407440E+00 -9.481775777076E+00
  21     8 O    -4.887995830311E+00  5.196729371040E+00 -7.379071035072E+00
  22     8 O     3.179277303884E+00 -5.243109965520E+00 -7.463691197556E+00
  23     8 O    -1.313499761717E+00  3.957037538400E+00 -8.680327939284E+00
  24     8 O    -4.564717808486E+00  1.111649308080E+00 -8.774416091976E+00
  25     8 O     1.276291988070E-01 -3.643841166000E+00 -9.153486366600E+00
  26     8 O    -6.867100130220E-01 -2.773839199200E-01 -8.763545436552E+00
  27     8 O    -2.533996159475E+00 -2.475579134160E+00 -8.483845225824E+00
  28     8 O     3.164171354894E+00  6.331455165600E-01 -2.442281224140E+00
  29     8 O    -2.010130419253E+00 -2.173438664160E+00 -4.412346436656E+00
  30     8 O     4.518532172957E+00 -9.602051234400E-01 -1.210675414560E+00
  31     8 O    -4.914275896178E+00  4.647597873600E+00 -4.622066803092E+00
  32     8 O     2.643166102885E+00  3.148981142400E-01 -5.218922769144E+00
  33     8 O     2.915094611583E+00  3.421259836800E+00 -4.429616752128E+00
  34     8 O    -4.198596744100E+00  2.862947604720E+00 -6.278176090308E+00
  35     8 O     3.433871468280E+00 -5.122839090000E+00  2.839739563080E-01
  36     8 O     1.126635958679E+00 -4.989311970720E+00 -3.981574798836E+00
  37     8 O     1.019490855240E-01  5.402217408000E-02 -3.272045365980E+00
  38     8 O    -1.604262496177E+00  3.057368900160E+00 -4.851775148856E+00
  39     8 O    -2.091316859995E+00  4.807875941040E+00 -6.537449988828E+00
  40     8 O    -2.253271917358E+00  2.710419508080E+00 -2.078859433332E+00
  41     8 O    -4.630348335800E-02 -1.035818824560E+00 -6.340287859404E+00
  42     8 O     3.337579078548E+00 -4.500055772160E+00 -5.194441877796E+00
  43     8 O     1.856853247480E-01 -5.221345012560E+00 -1.663582862820E+00
  44     8 O     2.245601095034E+00 -2.365681296480E+00 -6.934667244684E+00
  45     8 O    -2.855795726718E+00 -5.027400638400E-01 -6.172998115752E+00
  46     8 O     7.624754536300E-01 -2.763878047920E+00 -3.308974911120E-01
  47     8 O     3.665721001679E+00 -5.225767373520E+00 -2.716589940444E+00
  48     8 O     1.119972199621E+00 -2.290208503920E+00 -3.458293006692E+00
  49     8 O     3.050266071446E+00 -3.129253944000E+00 -1.560618469308E+00
  50     8 O    -2.474857976195E+00 -5.304459384720E+00 -3.312634990668E+00
  51     8 O    -2.138552412546E+00  5.328912439440E+00 -8.543107831200E-02
  52     8 O     1.275456339828E+00  8.667719090400E-01 -3.046851848880E-01
  53     8 O     9.777512968960E-01  4.269009090240E+00 -6.362226420048E+00
  54     8 O    -4.846481254186E+00  1.339953692640E+00 -1.547161649892E+00
  55     8 O    -3.414169453959E+00 -3.610131502800E+00 -6.316311050868E+00
  56     8 O    -4.069896201393E+00 -1.075598394960E+00 -2.441886724548E+00
  57     8 O    -5.054729081468E+00  1.804182363120E+00 -4.117699074720E+00
  58     8 O    -1.112054968200E-02 -3.758183042880E+00 -6.632546307144E+00
  59     8 O    -1.533435950948E+00 -3.264352735680E+00 -1.651835541636E+00
  60     8 O     3.056008474750E-01  1.716038639280E+00 -5.356055210652E+00
  61     8 O     2.883489966533E+00  3.388579890000E+00 -1.267045022928E+00
  62     8 O    -4.476556918955E+00 -3.917117059440E+00 -1.208878249752E+00
  63     8 O    -2.278555633398E+00  8.478684837600E-01 -3.619687173108E+00
  64     8 O     3.587137926614E+00 -1.822522154160E+00 -3.898444968144E+00
  65     8 O    -5.312183734077E+00 -2.190250139280E+00 -6.931270164864E+00
  66     8 O    -1.694994611068E+00 -7.934127448800E-01 -1.329200625312E+00
  67     8 O    -5.579237628030E-01  2.935038591840E+00  7.372539875160E-01
  68     8 O    -4.736679217875E+00 -3.360777547200E+00 -3.804137649012E+00
  69     8 O    -4.761598676989E+00  4.318858203120E+00 -1.403607631692E+00
  70     8 O     5.353323339837E+00 -4.697024260800E-01 -5.039118621768E+00
  71     8 O    -2.221592278235E+00  2.020130150880E+00 -7.584517655928E+00
  72     8 O     5.984848428570E-01  2.951524893360E+00 -2.168125924344E+00
  73    14 SI    1.619689848337E+00  4.843363219920E+00  1.964564134872E+00
  74    14 SI    4.305002620248E+00  1.805071170960E+00  2.320972599600E+00
  75    14 SI    6.239292604820E-01  3.533032842240E+00  3.657033134484E+00
  76    14 SI    3.106468772440E+00  5.593744658400E-01  3.831686870520E+00
  77    14 SI    1.780884251531E+00  2.033852476800E+00  5.013081648696E+00
  78    14 SI    4.250599777006E+00  4.825391958960E+00  4.971089358792E+00
  79    14 SI    1.587999495775E+00 -5.127987672000E-01  2.495078419536E+00
  80    14 SI    4.825515054063E+00 -3.488895945600E+00  2.469129113040E+00
  81    14 SI    3.217245731700E-01 -2.017030162560E+00  3.692362764612E+00
  82    14 SI    2.992242085822E+00 -4.657764968160E+00  3.448912683060E+00
  83    14 SI    1.745862019440E+00 -3.383106134400E+00  4.960898119332E+00
  84    14 SI    4.565724871752E+00 -8.348507006400E-01  4.964733532032E+00
  85    14 SI   -3.859323557848E+00  4.622884680000E+00  2.586032492136E+00
  86    14 SI   -5.201374634500E-01  2.050121995920E+00  2.317948102728E+00
  87    14 SI   -5.226240526419E+00  3.262347498480E+00  3.787919332452E+00
  88    14 SI   -2.340007919502E+00  8.573527137600E-01  3.288811598640E+00
  89    14 SI   -3.647786704793E+00  1.968731043840E+00  4.934926896192E+00
  90    14 SI   -8.366660187050E-01  4.616110230000E+00  5.060136683364E+00
  91    14 SI   -3.926261124720E+00 -2.403358077600E-01  1.892589875976E+00
  92    14 SI   -8.883690753190E-01 -3.522334630800E+00  2.454576461424E+00
  93    14 SI   -4.648389767076E+00 -1.879134877920E+00  3.501424962084E+00
  94    14 SI   -2.182188249593E+00 -4.987751137440E+00  3.654183970764E+00
  95    14 SI   -3.474464688651E+00 -3.431622035520E+00  4.833277501320E+00
  96    14 SI   -1.076989882353E+00 -5.386717466400E-01  4.818944016144E+00
  97    14 SI    3.859944937310E-01  6.554741037600E-01  6.262724856288E+00
  98    14 SI    3.056222743530E+00  3.371638345440E+00  6.369064412976E+00
  99    14 SI    5.081169848920E-01 -4.836469539600E+00  6.326589956904E+00
 100    14 SI    3.161621556412E+00 -2.108002896720E+00  6.315368635176E+00
 101    14 SI   -4.924432236350E+00  5.769230011200E-01  6.325165375044E+00
 102    14 SI   -2.240255088973E+00  3.260266387440E+00  6.311818138848E+00
 103    14 SI   -4.890106377794E+00 -4.739600324160E+00  6.173984364732E+00
 104    14 SI   -2.214499981617E+00 -2.046241590960E+00  6.195375009276E+00
 105    14 SI    1.710561237935E+00  4.602041052240E+00  7.787531529300E+00
 106    14 SI    4.392145733074E+00  1.937243400240E+00  7.637512101120E+00
 107    14 SI    3.640533706590E-01  3.217506059040E+00  9.192936325800E+00
 108    14 SI    2.999270101806E+00  6.671044795200E-01  9.103319168484E+00
 109    14 SI    1.614397409471E+00  1.853619589440E+00  1.065418473121E+01
 110    14 SI    4.339114210024E+00  4.380977199840E+00  1.034281496990E+01
 111    14 SI    1.778270172415E+00 -7.113280891200E-01  7.617546038436E+00
 112    14 SI    4.493891263257E+00 -3.498499405920E+00  7.620504785376E+00
 113    14 SI    5.875357081990E-01 -2.226517834800E+00  8.939952504108E+00
 114    14 SI    3.268434543242E+00 -4.961954031840E+00  8.941574335764E+00
 115    14 SI    2.141787871124E+00 -3.425226954720E+00  1.023956566002E+01
 116    14 SI    4.393913450509E+00 -7.079137663200E-01  1.042964871343E+01
 117    14 SI   -3.591530436604E+00  4.695105736560E+00  7.559817598140E+00
 118    14 SI   -9.087460362970E-01  1.938782555280E+00  7.704160615524E+00
 119    14 SI   -4.926574924150E+00  3.281250923760E+00  8.885577310344E+00
 120    14 SI   -2.175449496462E+00  4.263242678400E-01  8.931865262472E+00
 121    14 SI   -3.563536220497E+00  1.841533970640E+00  1.006743233804E+01
 122    14 SI   -7.349097750830E-01  5.059581985680E+00  1.018372205111E+01
 123    14 SI   -3.589837713242E+00 -8.233503943200E-01  7.608779380836E+00
 124    14 SI   -8.245491191960E-01 -3.386509618080E+00  7.504872571632E+00
 125    14 SI   -4.973017682215E+00 -2.079496011120E+00  9.015280009536E+00
 126    14 SI   -2.223884954181E+00 -4.679052999840E+00  8.805581559744E+00
 127    14 SI   -3.653432687146E+00 -3.573961359360E+00  1.027835811990E+01
 128    14 SI   -9.236162896290E-01 -1.066244234400E+00  1.026514238357E+01
 129    14 SI    3.818376793990E-01  2.542857552000E-02 -1.010208255221E+01
 130    14 SI    2.797825308289E+00  3.490641043920E+00 -9.940030886472E+00
 131    14 SI    8.179175004550E-01 -4.681079915280E+00 -1.033466197834E+01
 132    14 SI    3.460912188316E+00 -2.305578376080E+00 -1.009289947837E+01
 133    14 SI   -4.645550705741E+00  4.956404402400E-01 -1.036534527994E+01
 134    14 SI   -2.023972182441E+00  4.770860346240E+00 -9.915681494988E+00
 135    14 SI   -4.767855325365E+00 -5.262544507680E+00 -1.041044973329E+01
 136    14 SI   -2.520582933847E+00 -2.096274968880E+00 -1.017778264058E+01
 137   272 HF    2.934743058709E+00 -1.564952145600E-01 -4.168984021680E-01
 138   272 HF    1.351028938534E+00  2.718299548320E+00 -2.132489461200E-01
 139   272 HF    2.671910259722E+00 -3.318439944480E+00  2.866258702320E-01
 140   272 HF   -5.340713622134E+00 -5.231696372160E+00  1.603640841480E-01
 141   272 HF   -6.720111747140E-01 -4.325795239920E+00 -1.182841276680E-01
 142   272 HF   -2.907134526406E+00  2.751077047200E-01 -8.030609027904E+00
 143   272 HF   -4.625430867299E+00 -3.808465720560E+00 -8.189285530464E+00
 144   272 HF    5.820825677480E-01 -1.945036727520E+00 -7.985131991604E+00
 145   272 HF   -3.302888963066E+00  3.882518588400E+00 -7.762678055004E+00
 146   272 HF   -1.494524740500E-02 -1.745141676480E+00 -1.810292877756E+00
 147   272 HF   -3.192658389195E+00 -2.176657882800E+00 -9.780302385000E-01
 148   272 HF    4.944241385061E+00 -2.618178596880E+00 -2.189297402448E+00
 149   272 HF   -2.322555727371E+00  3.395267627040E+00 -1.785548986680E-01
 150   272 HF    2.023254382028E+00 -4.747426168800E-01 -3.583502793864E+00
 151   272 HF   -2.929579181111E+00  7.535573006400E-01 -1.594545434220E+00
 152   272 HF    1.713871690586E+00 -4.763901631200E+00 -6.364001668212E+00
 153   272 HF    2.692051525042E+00 -3.625739835600E+00 -3.529346766540E+00
 154   272 HF    2.147476707233E+00  1.895274327600E+00 -6.437378592324E+00
 155   272 HF   -3.915611966354E+00 -2.111731554000E+00 -5.172547150440E+00
 156   272 HF    5.182840385030E+00  1.396122012480E+00 -6.083402875080E+00
 157   272 HF    2.230141602557E+00  4.279750658160E+00 -2.957300441496E+00
 158   272 HF   -5.297045644770E-01  3.061292661600E+00 -6.803496130344E+00
 159   272 HF   -4.385974792210E+00 -5.285848615680E+00 -2.985068829444E+00
 160   272 HF   -1.810978301682E+00 -4.168302826320E+00 -7.204285799172E+00
 161   272 HF   -7.174575829520E-01 -4.453317486720E+00 -3.146309579352E+00
 162   272 HF   -6.406207984440E-01  2.051140873200E+00 -3.481634232552E+00
 163   272 HF    3.773305356117E+00 -1.276306380000E+00 -6.317078133408E+00
 164   272 HF   -3.559132997068E+00  3.094124356080E+00 -4.331430187008E+00
 165   272 HF    4.704817450289E+00  2.850536812320E+00 -8.116829105400E-01
 166   272 HF   -1.251404669273E+00 -5.267378755200E-01 -4.995570250140E+00
 167   272 HF    4.344417362329E+00  4.719407043600E+00 -6.132255074556E+00
 168   272 HF    5.043383549567E+00  1.749000403200E-01 -2.972159926128E+00

 *******************************************************************************
 *** PSEUDOPOTENTIAL INFORMATION ***
 *******************************************************************************

 ATOMIC NUMBER  72, NUCLEAR CHARGE 12.000, HAY-WADT SMALL CORE  PSEUDOPOTENTIAL
   TYPE       EXPONENT      COEFF.    N      EXPONENT      COEFF.    N
  W0 TMS   685.5502931  -60.0000000  -1   151.8080485 -688.4980664   0
            38.0522099 -199.7748820   0    10.2057544  -77.2365121   0
             3.4376287  -14.6532596   0     0.8997539   -0.6762204   0
  P0 TMS   380.1096725    3.0000000  -2   724.6234505   31.3395532  -1
           281.4764603 1251.6866138   0    89.3590988  700.8900106   0
            22.9765773  266.0445845   0     3.6700035  465.0196155   0
             3.4703000 -369.5404568   0
  P1 TMS   228.3135771    2.0000000  -2    64.0878447   60.2776972  -1
            20.5139289  192.2174983   0     3.1643736  339.6460089   0
             2.9880924 -266.1066543   0
  P2 TMS   143.7102399    3.0000000  -2    63.1859170   54.6576760  -1
            32.0227449  217.5811427   0    10.7674922  125.1363084   0
             3.1003260   37.6203195   0
  P3 TMS    85.0395853    4.0000000  -2    41.8198820   49.6358393  -1
            19.6524967  178.4657222   0     6.0777120   82.0077173   0
             1.4776693    6.3063943   0

 *******************************************************************************
 LOCAL ATOMIC FUNCTIONS BASIS SET
 *******************************************************************************
   ATOM  X(AU)  Y(AU)  Z(AU)    NO. TYPE  EXPONENT  S COEF   P COEF   D/F/G COEF
 *******************************************************************************
   1 O   0.915  1.354  4.046
                                  1 S  
                                         2.703E+04 2.173E-04 0.000E+00 0.000E+00
                                         4.052E+03 1.684E-03 0.000E+00 0.000E+00
                                         9.223E+02 8.740E-03 0.000E+00 0.000E+00
                                         2.612E+02 3.524E-02 0.000E+00 0.000E+00
                                         8.535E+01 1.115E-01 0.000E+00 0.000E+00
                                         3.104E+01 2.559E-01 0.000E+00 0.000E+00
                                  2 S  
                                         1.226E+01 3.977E-01 0.000E+00 0.000E+00
                                         4.999E+00 2.463E-01 0.000E+00 0.000E+00
                                  3 S  
                                         1.099E+00 1.000E+00 0.000E+00 0.000E+00
                                  4 S  
                                         3.566E-01 1.000E+00 0.000E+00 0.000E+00
                             5-   7 P  
                                         6.327E+01 0.000E+00 6.069E-03 0.000E+00
                                         1.463E+01 0.000E+00 4.191E-02 0.000E+00
                                         4.450E+00 0.000E+00 1.615E-01 0.000E+00
                                         1.528E+00 0.000E+00 3.571E-01 0.000E+00
                             8-  10 P  
                                         5.490E-01 0.000E+00 1.000E+00 0.000E+00
                            11-  13 P  
                                         1.859E-01 0.000E+00 1.000E+00 0.000E+00
                            14-  18 D  
                                         2.535E-01 0.000E+00 0.000E+00 1.000E+00
   2 O   0.658 -8.681  3.080
   3 O  -9.874  1.474  3.227
   4 O  -9.226 -9.232  3.976
   5 O  -5.104  2.850  0.281
   6 O  -7.325  7.472  1.967
   7 O   8.786 -5.878  1.593
   8 O   4.787 -2.453  2.396
   9 O  -7.065 -1.909  0.828
  10 O  -3.150 -5.667  2.040
  11 O   6.312  4.139  1.861
  12 O   3.105  9.072-18.657
  13 O   2.923 -1.969-17.890
  14 O  -6.775  7.843-18.997
  15 O  -6.507 -1.280-18.644
  16 O  -5.215 -9.289-16.513
  17 O   1.601  3.914-14.753
  18 O   7.308  5.471-12.620
  19 O   7.137  0.760-13.693
  20 O   9.002 -5.951-17.918
  21 O  -9.237  9.820-13.944
  22 O   6.008 -9.908-14.104
  23 O  -2.482  7.478-16.403
  24 O  -8.626  2.101-16.581
  25 O   0.241 -6.886-17.298
  26 O  -1.298 -0.524-16.561
  27 O  -4.789 -4.678-16.032
  28 O   5.979  1.196 -4.615
  29 O  -3.799 -4.107 -8.338
  30 O   8.539 -1.815 -2.288
  31 O  -9.287  8.783 -8.734
  32 O   4.995  0.595 -9.862
  33 O   5.509  6.465 -8.371
  34 O  -7.934  5.410-11.864
  35 O   6.489 -9.681  0.537
  36 O   2.129 -9.428 -7.524
  37 O   0.193  0.102 -6.183
  38 O  -3.032  5.778 -9.169
  39 O  -3.952  9.086-12.354
  40 O  -4.258  5.122 -3.928
  41 O  -0.088 -1.957-11.981
  42 O   6.307 -8.504 -9.816
  43 O   0.351 -9.867 -3.144
  44 O   4.244 -4.470-13.105
  45 O  -5.397 -0.950-11.665
  46 O   1.441 -5.223 -0.625
  47 O   6.927 -9.875 -5.134
  48 O   2.116 -4.328 -6.535
  49 O   5.764 -5.913 -2.949
  50 O  -4.677-10.024 -6.260
  51 O  -4.041 10.070 -0.161
  52 O   2.410  1.638 -0.576
  53 O   1.848  8.067-12.023
  54 O  -9.159  2.532 -2.924
  55 O  -6.452 -6.822-11.936
  56 O  -7.691 -2.033 -4.614
  57 O  -9.552  3.409 -7.781
  58 O  -0.021 -7.102-12.534
  59 O  -2.898 -6.169 -3.122
  60 O   0.578  3.243-10.121
  61 O   5.449  6.403 -2.394
  62 O  -8.459 -7.402 -2.284
  63 O  -4.306  1.602 -6.840
  64 O   6.779 -3.444 -7.367
  65 O -10.039 -4.139-13.098
  66 O  -3.203 -1.499 -2.512
  67 O  -1.054  5.546  1.393
  68 O  -8.951 -6.351 -7.189
  69 O  -8.998  8.161 -2.652
  70 O  10.116 -0.888 -9.523
  71 O  -4.198  3.817-14.333
  72 O   1.131  5.578 -4.097
  73 SI  3.061  9.153  3.712
                               1297 S  
                                         8.765E+04 2.370E-04 0.000E+00 0.000E+00
                                         1.285E+04 1.920E-03 0.000E+00 0.000E+00
                                         2.786E+03 1.090E-02 0.000E+00 0.000E+00
                                         7.280E+02 4.960E-02 0.000E+00 0.000E+00
                                         2.195E+02 1.668E-01 0.000E+00 0.000E+00
                                         7.590E+01 3.630E-01 0.000E+00 0.000E+00
                                         2.946E+01 4.051E-01 0.000E+00 0.000E+00
                                         1.199E+01 1.504E-01 0.000E+00 0.000E+00
                          1298-1301 SP 
                                         1.660E+02-8.840E-03 9.090E-03 0.000E+00
                                         3.937E+01-8.590E-02 6.010E-02 0.000E+00
                                         1.271E+01-7.120E-02 1.952E-01 0.000E+00
                                         4.718E+00 4.147E-01 3.384E-01 0.000E+00
                                         1.848E+00 6.168E-01 3.006E-01 0.000E+00
                                         7.365E-01 1.154E-01 6.480E-02 0.000E+00
                          1302-1305 SP 
                                         4.175E+00-1.990E-02-8.700E-03 0.000E+00
                                         1.447E+00-1.864E-01-4.380E-03 0.000E+00
                                         5.023E-01 9.670E-02 2.207E-01 0.000E+00
                          1306-1309 SP 
                                         3.220E-01 1.000E+00 1.000E+00 0.000E+00
                          1310-1313 SP 
                                         1.300E-01 1.000E+00 1.000E+00 0.000E+00
                          1314-1318 D  
                                         6.000E-01 0.000E+00 0.000E+00 1.000E+00
  74 SI  8.135  3.411  4.386
  75 SI  1.179  6.676  6.911
  76 SI  5.870  1.057  7.241
  77 SI  3.365  3.843  9.473
  78 SI  8.032  9.119  9.394
  79 SI  3.001 -0.969  4.715
  80 SI  9.119 -6.593  4.666
  81 SI  0.608 -3.812  6.978
  82 SI  5.655 -8.802  6.518
  83 SI  3.299 -6.393  9.375
  84 SI  8.628 -1.578  9.382
  85 SI -7.293  8.736  4.887
  86 SI -0.983  3.874  4.380
  87 SI -9.876  6.165  7.158
  88 SI -4.422  1.620  6.215
  89 SI -6.893  3.720  9.326
  90 SI -1.581  8.723  9.562
  91 SI -7.420 -0.454  3.576
  92 SI -1.679 -6.656  4.638
  93 SI -8.784 -3.551  6.617
  94 SI -4.124 -9.425  6.905
  95 SI -6.566 -6.485  9.134
  96 SI -2.035 -1.018  9.106
  97 SI  0.729  1.239 11.835
  98 SI  5.775  6.371 12.036
  99 SI  0.960 -9.140 11.956
 100 SI  5.975 -3.984 11.934
 101 SI -9.306  1.090 11.953
 102 SI -4.233  6.161 11.928
 103 SI -9.241 -8.957 11.667
 104 SI -4.185 -3.867 11.708
 105 SI  3.232  8.697 14.716
 106 SI  8.300  3.661 14.433
 107 SI  0.688  6.080 17.372
 108 SI  5.668  1.261 17.203
 109 SI  3.051  3.503 20.133
 110 SI  8.200  8.279 19.545
 111 SI  3.360 -1.344 14.395
 112 SI  8.492 -6.611 14.401
 113 SI  1.110 -4.208 16.894
 114 SI  6.176 -9.377 16.897
 115 SI  4.047 -6.473 19.350
 116 SI  8.303 -1.338 19.709
 117 SI -6.787  8.872 14.286
 118 SI -1.717  3.664 14.559
 119 SI -9.310  6.201 16.791
 120 SI -4.111  0.806 16.879
 121 SI -6.734  3.480 19.025
 122 SI -1.389  9.561 19.244
 123 SI -6.784 -1.556 14.379
 124 SI -1.558 -6.400 14.182
 125 SI -9.398 -3.930 17.036
 126 SI -4.203 -8.842 16.640
 127 SI -6.904 -6.754 19.423
 128 SI -1.745 -2.015 19.398
 129 SI  0.722  0.048-19.090
 130 SI  5.287  6.596-18.784
 131 SI  1.546 -8.846-19.530
 132 SI  6.540 -4.357-19.073
 133 SI -8.779  0.937-19.588
 134 SI -3.825  9.016-18.738
 135 SI -9.010 -9.945-19.673
 136 SI -4.763 -3.961-19.233
 137 HF  5.546 -0.296 -0.788
                               2705 S  
                                         2.400E+01 2.211E-01 0.000E+00 0.000E+00
                                         1.600E+01-3.581E+00 0.000E+00 0.000E+00
                                         1.440E+01 4.254E+00 0.000E+00 0.000E+00
                                         1.030E+01-6.959E-01 0.000E+00 0.000E+00
                               2706 S  
                                         3.793E+00 1.000E+00 0.000E+00 0.000E+00
                               2707 S  
                                         1.019E+00 1.000E+00 0.000E+00 0.000E+00
                               2708 S  
                                         4.599E-01 1.000E+00 0.000E+00 0.000E+00
                               2709 S  
                                         1.928E-01 1.000E+00 0.000E+00 0.000E+00
                          2710-2712 P  
                                         2.235E+01 0.000E+00-7.453E-03 0.000E+00
                                         8.740E+00 0.000E+00 1.564E-01 0.000E+00
                                         4.850E+00 0.000E+00-4.487E-01 0.000E+00
                          2713-2715 P  
                                         1.257E+00 0.000E+00 1.000E+00 0.000E+00
                          2716-2718 P  
                                         6.112E-01 0.000E+00 1.000E+00 0.000E+00
                          2719-2721 P  
                                         2.674E-01 0.000E+00 1.000E+00 0.000E+00
                          2722-2726 D  
                                         8.056E+00 0.000E+00 0.000E+00 9.673E-03
                                         4.342E+00 0.000E+00 0.000E+00-5.457E-02
                                         1.184E+00 0.000E+00 0.000E+00 1.969E-01
                                         5.134E-01 0.000E+00 0.000E+00 4.000E-01
                          2727-2731 D  
                                         2.055E-01 0.000E+00 0.000E+00 1.000E+00
 138 HF  2.553  5.137 -0.403
 139 HF  5.049 -6.271  0.542
 140 HF-10.092 -9.886  0.303
 141 HF -1.270 -8.175 -0.224
 142 HF -5.494  0.520-15.176
 143 HF -8.741 -7.197-15.476
 144 HF  1.100 -3.676-15.090
 145 HF -6.242  7.337-14.669
 146 HF -0.028 -3.298 -3.421
 147 HF -6.033 -4.113 -1.848
 148 HF  9.343 -4.948 -4.137
 149 HF -4.389  6.416 -0.337
 150 HF  3.823 -0.897 -6.772
 151 HF -5.536  1.424 -3.013
 152 HF  3.239 -9.002-12.026
 153 HF  5.087 -6.852 -6.669
 154 HF  4.058  3.582-12.165
 155 HF -7.399 -3.991 -9.775
 156 HF  9.794  2.638-11.496
 157 HF  4.214  8.088 -5.588
 158 HF -1.001  5.785-12.857
 159 HF -8.288 -9.989 -5.641
 160 HF -3.422 -7.877-13.614
 161 HF -1.356 -8.416 -5.946
 162 HF -1.211  3.876 -6.579
 163 HF  7.131 -2.412-11.938
 164 HF -6.726  5.847 -8.185
 165 HF  8.891  5.387 -1.534
 166 HF -2.365 -0.995 -9.440
 167 HF  8.210  8.918-11.588
 168 HF  9.531  0.331 -5.617
 INFORMATION **** TOLINTEG **** COULOMB AND EXCHANGE SERIES TOLERANCES MODIFIED
 INFORMATION **** READM2 **** FULL DIRECT SCF (MONO AND BIEL INT) SELECTED
 INFORMATION **** SMEAR **** FERMI SMEARING ACTIVE
 FERMI SMEARING - TEMPERATURE SMEARING OF FERMI SURFACE  0.1000E-12
 INFORMATION **** MAXCYCLE **** MAX NUMBER OF SCF CYCLES SET TO         250

 MODIFIED BROYDEN MIXING OF THE FOCK MATRIX
 WO PARAMETER(D.D. Johnson, PRB38, 12807,(1988)             1.0000E-04
 % OF FOCK/KS MATRICES MIXING WHEN BROYDEN METHOD IS ON             95
 NUMBER OF SCF ITERATIONS AFTER WHICH BROYDEN METHOD IS ACTIVE     100
 INFORMATION **** TOLDEE **** SCF TOL ON TOTAL ENERGY SET TO           7
 *******************************************************************************
 N. OF ATOMS PER CELL      168  COULOMB OVERLAP TOL         (T1) 10** -8
 NUMBER OF SHELLS         1312  COULOMB PENETRATION TOL     (T2) 10** -8
 NUMBER OF AO             3568  EXCHANGE OVERLAP TOL        (T3) 10** -8
 N. OF ELECTRONS PER CELL 1856  EXCHANGE PSEUDO OVP (F(G))  (T4) 10** -8
 CORE ELECTRONS PER CELL   784  EXCHANGE PSEUDO OVP (P(G))  (T5) 10**-16
 N. OF SYMMETRY OPERATORS    1  POLE ORDER IN MONO ZONE                4
 *******************************************************************************
 TYPE OF CALCULATION :  UNRESTRICTED OPEN SHELL
 KOHN-SHAM HAMILTONIAN

 (EXCHANGE)[CORRELATION] FUNCTIONAL:(BECKE)[LEE-YANG-PARR]

 NON-LOCAL WEIGHTING FACTOR (EXCHANGE) =           0.9000
 NON-LOCAL WEIGHTING FACTOR [CORRELATION] =        0.8100

 HYBRID EXCHANGE - PERCENTAGE OF FOCK EXCHANGE    20.0000

 SPIN POLARIZED DFT SELECTED
 CORE  PSEUDO POTENTIAL         TOL. ON PSEUDO              (TP) 10**- 6

 CAPPA:IS1  2;IS2  2;IS3  2; K PTS MONK NET    8; SYMMOPS: K SPACE  2;G SPACE  1

 *******************************************************************************
 MAX NUMBER OF SCF CYCLES     250  CONVERGENCE ON DELTAP        10**-17
 WEIGHT OF F(I) IN F(I+1)      97% CONVERGENCE ON ENERGY        10**- 7
 SHRINK. FACT.(MONKH.)    2  2  2  NUMBER OF K POINTS IN THE IBZ      8
 SHRINKING FACTOR(GILAT NET)    2  NUMBER OF K POINTS(GILAT NET)      8
 *******************************************************************************
 *** K POINTS COORDINATES (OBLIQUE COORDINATES IN UNITS OF IS =  2)
   1-R(  0  0  0)   2-R(  1  0  0)   3-R(  0  1  0)   4-R(  1  1  0)
   5-R(  0  0  1)   6-R(  1  0  1)   7-R(  0  1  1)   8-R(  1  1  1)

 DIRECT LATTICE VECTORS COMPON. (A.U.)     RECIP. LATTICE VECTORS COMPON. (A.U.) 
        X            Y            Z              X            Y            Z
   20.2454657    0.0000000    0.0000000      0.3103502    0.0000000    0.0000000
    0.0000000   20.4829683    0.0000000      0.0000000    0.3067517    0.0000000
    0.0000000    0.0000000   41.4164549      0.0000000    0.0000000    0.1517075

 DISK SPACE FOR EIGENVECTORS (FTN 10)  101844992 REALS

 SYMMETRY ADAPTION OF THE BLOCH FUNCTIONS DISABLED
 TTTTTTTTTTTTTTTTTTTTTTTTTTTTTT gordsh1     TELAPSE        5.17 TCPU        1.02
[r2i4n1:30839] 19 more processes have sent help message help-opal-shmem-mmap.txt / mmap on nfs
[r2i4n1:30839] Set MCA parameter "orte_base_help_aggregate" to 0 to see all help / error messages

 DIMENSIONS  P(G)= 9470330 F(G)= 1678215 P(G),F(G) (IRR) 4743565
 MAX G-VECTOR INDEX FOR 1- AND 2-ELECTRON INTEGRALS  65

 TTTTTTTTTTTTTTTTTTTTTTTTTTTTTT INPUT       TELAPSE        7.79 TCPU        3.19

 NEIGHBORS OF THE NON-EQUIVALENT ATOMS

 N = NUMBER OF NEIGHBORS AT DISTANCE R
    ATOM  N     R/ANG      R/AU   NEIGHBORS (ATOM LABELS AND CELL INDICES)
   1 O    1     1.6787     3.1723  86 SI   0 0 0
   1 O    1     1.6897     3.1931  79 SI   0 0 0
   1 O    1     2.5752     4.8664  52 O    0 0 0
   1 O    1     2.8247     5.3379  67 O    0 0 0
   1 O    1     3.0034     5.6757   8 O    0 0 0
   1 O    1     3.0515     5.7665  88 SI   0 0 0

   2 O    1     1.8322     3.4624  92 SI   0 0 0
   2 O    1     1.9221     3.6323  73 SI   0-1 0
   2 O    1     2.0416     3.8581 141 HF   0 0 0
   2 O    1     2.6282     4.9665  10 O    0 0 0
   2 O    1     2.7137     5.1282  46 O    0 0 0
   2 O    1     2.9716     5.6155 139 HF   0 0 0

   3 O    1     1.6622     3.1410  91 SI   0 0 0
   3 O    1     1.6813     3.1772  74 SI  -1 0 0
   3 O    1     2.6509     5.0095   9 O    0 0 0
   3 O    1     2.6692     5.0440  11 O   -1 0 0
   3 O    1     3.0547     5.7726   5 O    0 0 0
   3 O    1     3.1989     6.0451  76 SI  -1 0 0

   4 O    1     1.7464     3.3002  85 SI   0-1 0
   4 O    1     1.7593     3.3245  80 SI  -1 0 0
   4 O    1     2.0266     3.8298 140 HF   0 0 0
   4 O    1     2.4774     4.6816   7 O   -1 0 0
   4 O    1     2.4781     4.6829   6 O    0-1 0
   4 O    1     3.0191     5.7052  35 O   -1 0 0

   5 O    1     1.9134     3.6158 151 HF   0 0 0
   5 O    1     1.9524     3.6895 149 HF   0 0 0
   5 O    1     2.5708     4.8580  40 O    0 0 0
   5 O    1     2.6411     4.9910  67 O    0 0 0
   5 O    1     2.7391     5.1762   9 O    0 0 0
   5 O    1     2.7400     5.1778  54 O    0 0 0

   6 O    1     1.6837     3.1818  85 SI   0 0 0
   6 O    1     2.0525     3.8786 149 HF   0 0 0
   6 O    1     2.3779     4.4936 140 HF   0 1 0
   6 O    1     2.4781     4.6829   4 O    0 1 0
   6 O    1     2.4855     4.6970  51 O    0 0 0
   6 O    1     2.6255     4.9615  69 O    0 0 0

   7 O    1     1.6790     3.1729  80 SI   0 0 0
   7 O    1     2.0646     3.9015 139 HF   0 0 0
   7 O    1     2.3427     4.4271 140 HF   1 0 0
   7 O    1     2.4164     4.5662  35 O    0 0 0
   7 O    1     2.4774     4.6816   4 O    1 0 0
   7 O    1     2.7167     5.1338  62 O    1 0 0

   8 O    1     1.7366     3.2817  79 SI   0 0 0
   8 O    1     2.0746     3.9203 137 HF   0 0 0
   8 O    1     2.2504     4.2527 139 HF   0 0 0
   8 O    1     2.8003     5.2917  46 O    0 0 0
   8 O    1     2.8183     5.3259   7 O    0 0 0
   8 O    1     2.9568     5.5876  52 O    0 0 0

   9 O    1     1.6562     3.1298  91 SI   0 0 0
   9 O    1     1.9142     3.6174 147 HF   0 0 0
   9 O    1     2.6509     5.0095   3 O    0 0 0
   9 O    1     2.7106     5.1222  66 O    0 0 0
   9 O    1     2.7391     5.1762   5 O    0 0 0
   9 O    1     2.8104     5.3110 151 HF   0 0 0

  10 O    1     1.6648     3.1460  92 SI   0 0 0
  10 O    1     2.0457     3.8658 141 HF   0 0 0
  10 O    1     2.6282     4.9665   2 O    0 0 0
  10 O    1     2.6901     5.0835 147 HF   0 0 0
  10 O    1     2.7473     5.1916  59 O    0 0 0
  10 O    1     2.8080     5.3064  51 O    0-1 0

  11 O    1     1.6924     3.1982  74 SI   0 0 0
  11 O    1     2.3506     4.4420 165 HF   0 0 0
  11 O    1     2.3815     4.5004 138 HF   0 0 0
  11 O    1     2.5914     4.8971  61 O    0 0 0
  11 O    1     2.6692     5.0440   3 O    1 0 0
  11 O    1     2.7636     5.2224 137 HF   0 0 0

  12 O    1     1.6541     3.1259 131 SI   0 1 0
  12 O    1     1.7477     3.3027 130 SI   0 0 0
  12 O    1     2.9237     5.5250  25 O    0 1 0
  12 O    1     2.9661     5.6051  22 O    0 1 0
  12 O    1     3.0299     5.7257 122 SI   0 0-1
  12 O    1     3.2144     6.0743 115 SI   0 1-1

  13 O    1     1.7027     3.2177 129 SI   0 0 0
  13 O    1     1.9859     3.7527 144 HF   0 0 0
  13 O    1     2.3774     4.4927 132 SI   0 0 0
  13 O    1     2.4635     4.6553  26 O    0 0 0
  13 O    1     2.9419     5.5594  44 O    0 0 0
  13 O    1     2.9806     5.6326  25 O    0 0 0

  14 O    1     1.6857     3.1856 134 SI   0 0 0
  14 O    1     1.8869     3.5658 135 SI   0 1 0
  14 O    1     2.3227     4.3893 145 HF   0 0 0
  14 O    1     2.3563     4.4527  16 O    0 1 0
  14 O    1     2.6611     5.0288  23 O    0 0 0
  14 O    1     2.9256     5.5286 121 SI   0 0-1

  15 O    1     1.7212     3.2526 136 SI   0 0 0
  15 O    1     1.7521     3.3111 133 SI   0 0 0
  15 O    1     2.1362     4.0368 142 HF   0 0 0
  15 O    1     2.3768     4.4915  24 O    0 0 0
  15 O    1     2.4438     4.6181  27 O    0 0 0
  15 O    1     2.9957     5.6610  26 O    0 0 0

  16 O    1     1.8043     3.4097 134 SI   0-1 0
  16 O    1     1.9526     3.6898 160 HF   0 0 0
  16 O    1     2.2379     4.2290 143 HF   0 0 0
  16 O    1     2.3264     4.3963 145 HF   0-1 0
  16 O    1     2.3563     4.4527  14 O    0-1 0
  16 O    1     2.4417     4.6141  23 O    0-1 0

  17 O    1     1.8968     3.5844 154 HF   0 0 0
  17 O    1     1.9707     3.7241 158 HF   0 0 0
  17 O    1     2.5353     4.7909  60 O    0 0 0
  17 O    1     2.6335     4.9766  53 O    0 0 0
  17 O    1     2.9637     5.6006  26 O    0 0 0
  17 O    1     2.9980     5.6653  23 O    0 0 0

  18 O    1     1.9630     3.7095 167 HF   0 0 0
  18 O    1     2.0040     3.7870 154 HF   0 0 0
  18 O    1     2.0812     3.9330 156 HF   0 0 0
  18 O    1     2.4980     4.7205  33 O    0 0 0
  18 O    1     2.5588     4.8353  19 O    0 0 0
  18 O    1     2.6777     5.0601  34 O    1 0 0

  19 O    1     1.9183     3.6250 163 HF   0 0 0
  19 O    1     2.0779     3.9267 156 HF   0 0 0
  19 O    1     2.3243     4.3922  32 O    0 0 0
  19 O    1     2.3534     4.4473 154 HF   0 0 0
  19 O    1     2.5588     4.8353  18 O    0 0 0
  19 O    1     2.8490     5.3838  70 O    0 0 0

  20 O    1     1.6680     3.1521 132 SI   0 0 0
  20 O    1     1.9645     3.7123 143 HF   1 0 0
  20 O    1     2.5934     4.9008 135 SI   1 0 0
  20 O    1     2.7984     5.2882  65 O    1 0 0
  20 O    1     3.1787     6.0069 127 SI   1 0-1
  20 O    1     3.1808     6.0108 116 SI   0 0-1

  21 O    1     1.9939     3.7680 167 HF  -1 0 0
  21 O    1     2.0220     3.8211 143 HF   0 1 0
  21 O    1     2.0945     3.9580 145 HF   0 0 0
  21 O    1     2.6278     4.9658  16 O    0 1 0
  21 O    1     2.6709     5.0473  34 O    0 0 0
  21 O    1     2.6775     5.0597  22 O   -1 1 0

[...]
   0.0011342  -0.0012628   0.0013647   0.0023260   0.0049156   0.0018027
  -0.0000247  -0.0040211  -0.0214517  -0.0041348   0.0019192   0.0020235
  -0.0017776   0.0013080   0.0004660  -0.0011316  -0.0011841  -0.0004493
  -0.0005186  -0.0007028  -0.0006427  -0.0004417   0.0001114  -0.0000781
  -0.0002263   0.0000582  -0.0009479   0.0000113  -0.0006443   0.0001336
   0.0000376   0.0003685  -0.0006432   0.0007104  -0.0012624  -0.0008029
   0.0009418  -0.0066623   0.0002682  -0.0004520   0.0008797  -0.0006835
   0.0007960  -0.0054964  -0.0031401  -0.0077992  -0.0004305  -0.0019450
   0.0000193  -0.0029605   0.0015991   0.0027212  -0.0199245  -0.0208151
  -0.0388245  -0.0199832  -0.0007391   0.0000390   0.0023700   0.0014071
   0.0033261  -0.0027362  -0.0086995  -0.0114231  -0.0200005  -0.0014082
   0.0009023   0.0011774  -0.0105436  -0.0010320  -0.0024486  -0.6865706
   0.0094310   0.0027390  -0.0177713   0.0006434  -0.0324764   0.0044067
  -0.0033622  -0.0471149   0.0069167   0.1937179  -0.0060685   0.0033636
   0.0045285   0.4228891   0.0122072   0.0001830  -0.0007092   0.0475500
  -0.0008768  -0.0004485  -0.0017775   0.0084866   0.0041678   0.5901171
   0.0020190  -0.0002640  -0.2884689   0.0008867   0.3884889  -0.0062419
  -0.0015554  -0.5361271   0.0132487   0.0120765  -0.0078422   0.0036437
 TTTTTTTTTTTTTTTTTTTTTTTTTTTTTT MOQGAD      TELAPSE   113349.32 TCPU   108737.68
 WARNING **** GENBUD **** COUL. BIPO BUFFER TOO SMALL - TO AVOID I/O SET BIPOSIZE =     4473000
 TTTTTTTTTTTTTTTTTTTTTTTTTTTTTT SHELLX      TELAPSE   113557.44 TCPU   108942.91
 TTTTTTTTTTTTTTTTTTTTTTTTTTTTTT MONMO3      TELAPSE   113571.08 TCPU   108956.53
 NUMERICALLY INTEGRATED DENSITY    928.0001563510    928.0001006462
 TTTTTTTTTTTTTTTTTTTTTTTTTTTTTT NUMDFT      TELAPSE   113578.58 TCPU   108963.91
 CYC 135 ETOT(AU) -2.551217958033E+04 DETOT -9.91E-07 tst  6.82E-09 PX  3.52E-04
 MODIFIED BROYDEN: MIX%=  95 W0=  1.000000000000E-04 W=  1.183681440264E+03
 TTTTTTTTTTTTTTTTTTTTTTTTTTTTTT FDIK        TELAPSE   113865.75 TCPU   109226.45

    ALPHA      ELECTRONS
 INSULATING STATE
 TOP OF VALENCE BANDS -    BAND    928; K    8; EIG -4.2475282E-02 AU
 TOP OF VALENCE BANDS -    BAND    928; K    1; EIG -4.5192704E-02 AU
 BOTTOM OF VIRTUAL BANDS - BAND    929; K    1; EIG -2.8901639E-02 AU

    BETA       ELECTRONS
 INSULATING STATE
 TOP OF VALENCE BANDS -    BAND    928; K    4; EIG -4.4713598E-02 AU
 TOP OF VALENCE BANDS -    BAND    928; K    1; EIG -4.5192704E-02 AU
 BOTTOM OF VIRTUAL BANDS - BAND    929; K    1; EIG -2.9134431E-02 AU
 TTTTTTTTTTTTTTTTTTTTTTTTTTTTTT PDIG        TELAPSE   114103.16 TCPU   109461.52
 CHARGE NORMALIZATION FACTOR   1.00000000
 TOTAL ATOMIC CHARGES:
   8.8732861   9.1394201   8.8857806   9.1233177   9.2422454   9.2348766
   9.3294110   9.2275316   9.0035903   9.1610469   9.1975204   8.8709581
   9.1284131   9.1558218   9.0669680   9.3820849   9.1982901   9.3820951
   9.4362289   8.9278613   9.2813020   9.2171957   9.1868684   9.2101657
   9.1035191   9.1837142   9.2513144   9.5230902   9.3230093   9.4438894
   9.2500849   9.3484273   9.1634412   9.4052526   9.2169348   9.5591728
   9.5348474   9.3391405   9.4003799   9.4587907   9.1326802   9.3778776
   9.3384414   9.2558348   9.3427577   9.3540632   9.3105939   9.5144657
   9.2878725   9.1674830   9.2496503   9.3242165   9.1725233   9.3210258
   9.3460017   9.4662100   9.3698051   9.3661711   9.6030978   9.3911000
   9.3915342   9.5480296   9.4733387   9.5480848   9.3210453   9.3001356
   9.2299525   9.3319230   9.4780906   9.5508883   9.2567870   9.3135635
  13.9154926  13.1447248  14.1367385  14.1212292  14.0034043  13.9999125
  13.0511000  13.0517643  14.1567960  14.1593745  14.0049140  14.0152547
  13.1033722  13.1347231  14.1078324  14.0501047  14.0431237  14.0078398
  13.0273903  13.0132592  14.1485598  14.1332658  14.0479783  14.0113507
  14.0031810  14.0049208  13.9934962  13.9921673  13.9774962  13.9973476
  14.0055876  14.0087989  14.0087405  13.9969220  13.9576672  14.0077163
  14.0686218  14.0896994  13.9938155  13.9884640  14.0243780  13.9953135
  14.0997649  14.0702197  13.9756753  13.9889074  14.0015601  14.0195734
  14.1643688  14.0509843  13.9882614  14.0066736  13.9951219  14.0162263
  14.1414542  14.0980126  12.9448688  13.6015426  13.0655655  13.5287915
  13.1131148  12.6093102  13.7679626  13.0385269   9.6946112   9.4662547
   9.3799572   9.4430446   9.3133527   9.3696290   9.5345213   9.4057946
   9.2960853   9.6736455   9.4852672   9.8598774   9.2697888   9.3592285
   9.3406037   9.3833270   9.4448212   9.2882023   9.2973812   9.5450889
   9.4246108   9.3788115   9.5829583   9.2312378   9.5235271   9.3224898
   9.2844549   9.6148119   9.8313104   9.4107324   9.3664283   9.3852854
 SUMMED SPIN DENSITY           0.00000000
 TOTAL ATOMIC SPINS  :
   0.0000999   0.0004205  -0.0004737  -0.0000789  -0.0001137   0.0003225
  -0.0000545   0.0002748   0.0002481   0.0007337  -0.0024637  -0.0008330
  -0.0242454  -0.0022775  -0.0009488  -0.0009485   0.0010820   0.0066655
  -0.0071340  -0.0239930  -0.0012407  -0.0012047  -0.0004743   0.0311272
  -0.0019896  -0.0022309   0.0001352   0.0015618   0.0121466  -0.0003047
   0.0054417   0.0112149   0.0037357   0.0048469  -0.0017389   0.0074294
   0.0019087   0.0026300   0.0004393  -0.0028030   0.0004288  -0.0000059
  -0.0033251  -0.0110146   0.0362160  -0.0002602   0.0003510   0.0498449
  -0.0007687  -0.0222315   0.0005425   0.0036241   0.0001607  -0.0005872
  -0.0002629   0.0009434   0.0030758  -0.0001734   0.0273465   0.0005384
   0.0011464  -0.0012636   0.0013652   0.0023262   0.0049157   0.0018010
  -0.0000242  -0.0040244  -0.0214626  -0.0041349   0.0019192   0.0020232
  -0.0017794   0.0014265   0.0004672  -0.0011275  -0.0011838  -0.0004435
  -0.0005111  -0.0007082  -0.0006371  -0.0004403   0.0001104  -0.0000785
  -0.0001775   0.0000602  -0.0009545   0.0000120  -0.0006429   0.0001334
   0.0000341   0.0003706  -0.0006410   0.0007109  -0.0012581  -0.0008004
   0.0009427  -0.0066615   0.0002692  -0.0004516   0.0008803  -0.0006824
   0.0007961  -0.0054933  -0.0031403  -0.0077991  -0.0004303  -0.0019450
   0.0000193  -0.0029606   0.0015990   0.0027209  -0.0199246  -0.0208153
  -0.0388238  -0.0199830  -0.0007383   0.0000387   0.0023702   0.0014072
   0.0033256  -0.0027359  -0.0087000  -0.0114232  -0.0200003  -0.0014081
   0.0009023   0.0011776  -0.0105435  -0.0010323  -0.0024486  -0.6865707
   0.0094314   0.0027389  -0.0177714   0.0006434  -0.0326086   0.0044187
  -0.0034011  -0.0477183   0.0069163   0.1937205  -0.0060688   0.0033635
   0.0045288   0.4229730   0.0122111   0.0001794  -0.0007089   0.0476271
  -0.0008768  -0.0004483  -0.0017848   0.0084873   0.0041668   0.5901162
   0.0020225  -0.0002639  -0.2884781   0.0008867   0.3884857  -0.0062399
  -0.0015554  -0.5361342   0.0136236   0.0120779  -0.0078413   0.0036599
 TTTTTTTTTTTTTTTTTTTTTTTTTTTTTT MOQGAD      TELAPSE   114106.29 TCPU   109464.65
 WARNING **** GENBUD **** COUL. BIPO BUFFER TOO SMALL - TO AVOID I/O SET BIPOSIZE =     4473000
 TTTTTTTTTTTTTTTTTTTTTTTTTTTTTT SHELLX      TELAPSE   114313.14 TCPU   109668.63
 TTTTTTTTTTTTTTTTTTTTTTTTTTTTTT MONMO3      TELAPSE   114329.29 TCPU   109684.76
 NUMERICALLY INTEGRATED DENSITY    928.0001563628    928.0001006379
 TTTTTTTTTTTTTTTTTTTTTTTTTTTTTT NUMDFT      TELAPSE   114338.75 TCPU   109693.93
 CYC 136 ETOT(AU) -2.551217958083E+04 DETOT -4.98E-07 tst  6.01E-09 PX  3.34E-04
 MODIFIED BROYDEN: MIX%=  95 W0=  1.000000000000E-04 W=  1.386750034014E+03
 TTTTTTTTTTTTTTTTTTTTTTTTTTTTTT FDIK        TELAPSE   114732.50 TCPU   110037.86

    ALPHA      ELECTRONS
 INSULATING STATE
 TOP OF VALENCE BANDS -    BAND    928; K    8; EIG -4.2475558E-02 AU
 TOP OF VALENCE BANDS -    BAND    928; K    1; EIG -4.5192963E-02 AU
 BOTTOM OF VIRTUAL BANDS - BAND    929; K    1; EIG -2.8901691E-02 AU

    BETA       ELECTRONS
 INSULATING STATE
 TOP OF VALENCE BANDS -    BAND    928; K    4; EIG -4.4713728E-02 AU
 TOP OF VALENCE BANDS -    BAND    928; K    1; EIG -4.5192963E-02 AU
 BOTTOM OF VIRTUAL BANDS - BAND    929; K    1; EIG -2.9133996E-02 AU
 TTTTTTTTTTTTTTTTTTTTTTTTTTTTTT PDIG        TELAPSE   114988.40 TCPU   110290.80
 CHARGE NORMALIZATION FACTOR   1.00000000
 TOTAL ATOMIC CHARGES:
   8.8732855   9.1394201   8.8857808   9.1233175   9.2422451   9.2348762
   9.3294099   9.2275308   9.0035900   9.1610460   9.1975211   8.8709564
   9.1284115   9.1558213   9.0669677   9.3820842   9.1982890   9.3820960
   9.4362281   8.9278601   9.2813012   9.2171945   9.1868679   9.2101658
   9.1035184   9.1837150   9.2513145   9.5230911   9.3230079   9.4438889
   9.2500839   9.3484287   9.1634422   9.4052536   9.2169344   9.5591723
   9.5348477   9.3391397   9.4003796   9.4587912   9.1326801   9.3778781
   9.3384418   9.2558338   9.3427599   9.3540641   9.3105936   9.5144650
   9.2878732   9.1674823   9.2496497   9.3242179   9.1725228   9.3210244
   9.3460019   9.4662088   9.3698055   9.3661707   9.6030971   9.3911005
   9.3915349   9.5480284   9.4733387   9.5480845   9.3210451   9.3001366
   9.2299525   9.3319227   9.4780872   9.5508894   9.2567881   9.3135635
  13.9154915  13.1447256  14.1367393  14.1212295  14.0034054  13.9999117
  13.0511004  13.0517625  14.1567953  14.1593730  14.0049135  14.0152540
  13.1033709  13.1347233  14.1078329  14.0501049  14.0431251  14.0078406
  13.0273896  13.0132589  14.1485587  14.1332646  14.0479762  14.0113515
  14.0031821  14.0049221  13.9934969  13.9921666  13.9774975  13.9973499
  14.0055870  14.0087988  14.0087414  13.9969229  13.9576684  14.0077164
  14.0686223  14.0896994  13.9938158  13.9884640  14.0243781  13.9953141
  14.0997652  14.0702203  13.9756770  13.9889093  14.0015611  14.0195742
  14.1643714  14.0509859  13.9882618  14.0066738  13.9951218  14.0162275
  14.1414545  14.0980129  12.9448686  13.6015415  13.0655654  13.5287904
  13.1131141  12.6093109  13.7679625  13.0385268   9.6946115   9.4662541
   9.3799572   9.4430437   9.3133529   9.3696284   9.5345220   9.4057957
   9.2960849   9.6736434   9.4852655   9.8598771   9.2697893   9.3592277
   9.3406042   9.3833280   9.4448213   9.2882026   9.2973810   9.5450892
   9.4246104   9.3788118   9.5829610   9.2312379   9.5235281   9.3224901
   9.2844551   9.6148120   9.8313081   9.4107322   9.3664283   9.3852877
 SUMMED SPIN DENSITY           0.00000000
 TOTAL ATOMIC SPINS  :
   0.0000996   0.0004202  -0.0004765  -0.0000767  -0.0001135   0.0003172
  -0.0000501   0.0002769   0.0002481   0.0007337  -0.0024668  -0.0008329
  -0.0242453  -0.0022774  -0.0009488  -0.0009485   0.0010821   0.0066656
  -0.0071342  -0.0239929  -0.0012407  -0.0012046  -0.0004743   0.0311272
  -0.0019895  -0.0022311   0.0001350   0.0015574   0.0121466  -0.0003032
   0.0054413   0.0112133   0.0037338   0.0048469  -0.0017277   0.0074296
   0.0019056   0.0026300   0.0004394  -0.0028028   0.0004288  -0.0000058
  -0.0033245  -0.0110146   0.0362158  -0.0002607   0.0003508   0.0498420
  -0.0007673  -0.0222309   0.0005421   0.0036233   0.0001609  -0.0005839
  -0.0002628   0.0009434   0.0030722  -0.0001734   0.0273462   0.0005382
   0.0011439  -0.0012610   0.0013648   0.0023258   0.0049160   0.0018009
  -0.0000245  -0.0040234  -0.0214525  -0.0041353   0.0019192   0.0020232
  -0.0017789   0.0014097   0.0004671  -0.0011286  -0.0011843  -0.0004444
  -0.0005118  -0.0007074  -0.0006380  -0.0004406   0.0001104  -0.0000787
  -0.0001862   0.0000596  -0.0009562   0.0000120  -0.0006434   0.0001333
   0.0000347   0.0003704  -0.0006408   0.0007103  -0.0012590  -0.0008012
   0.0009425  -0.0066618   0.0002689  -0.0004517   0.0008800  -0.0006825
   0.0007960  -0.0054938  -0.0031402  -0.0077991  -0.0004305  -0.0019449
   0.0000193  -0.0029606   0.0015990   0.0027210  -0.0199244  -0.0208152
  -0.0388237  -0.0199831  -0.0007385   0.0000385   0.0023702   0.0014072
   0.0033258  -0.0027361  -0.0087000  -0.0114232  -0.0200003  -0.0014081
   0.0009023   0.0011775  -0.0105436  -0.0010323  -0.0024486  -0.6865706
   0.0094313   0.0027389  -0.0177714   0.0006434  -0.0325918   0.0044158
  -0.0033978  -0.0476132   0.0069171   0.1937203  -0.0060691   0.0033634
   0.0045285   0.4229641   0.0122101   0.0001809  -0.0007084   0.0476216
  -0.0008770  -0.0004487  -0.0017835   0.0084866   0.0041667   0.5901163
   0.0020223  -0.0002640  -0.2884743   0.0008866   0.3884858  -0.0062401
  -0.0015555  -0.5361342   0.0135434   0.0120777  -0.0078415   0.0036576
 TTTTTTTTTTTTTTTTTTTTTTTTTTTTTT MOQGAD      TELAPSE   114992.00 TCPU   110294.40
 WARNING **** GENBUD **** COUL. BIPO BUFFER TOO SMALL - TO AVOID I/O SET BIPOSIZE =     4473000
 TTTTTTTTTTTTTTTTTTTTTTTTTTTTTT SHELLX      TELAPSE   115199.22 TCPU   110498.64
 TTTTTTTTTTTTTTTTTTTTTTTTTTTTTT MONMO3      TELAPSE   115393.60 TCPU   110692.71
 NUMERICALLY INTEGRATED DENSITY    928.0001563601    928.0001006397
 TTTTTTTTTTTTTTTTTTTTTTTTTTTTTT NUMDFT      TELAPSE   115404.99 TCPU   110704.08
 CYC 137 ETOT(AU) -2.551217958073E+04 DETOT  9.58E-08 tst  2.81E-10 PX  6.87E-05
 MODIFIED BROYDEN: MIX%=  95 W0=  1.000000000000E-04 W=  1.328355378535E+03
 TTTTTTTTTTTTTTTTTTTTTTTTTTTTTT FDIK        TELAPSE   115717.71 TCPU   110998.66

    ALPHA      ELECTRONS
 INSULATING STATE
 TOP OF VALENCE BANDS -    BAND    928; K    8; EIG -4.2475401E-02 AU
 TOP OF VALENCE BANDS -    BAND    928; K    1; EIG -4.5192789E-02 AU
 BOTTOM OF VIRTUAL BANDS - BAND    929; K    1; EIG -2.8901973E-02 AU

    BETA       ELECTRONS
 INSULATING STATE
 TOP OF VALENCE BANDS -    BAND    928; K    4; EIG -4.4713376E-02 AU
 TOP OF VALENCE BANDS -    BAND    928; K    1; EIG -4.5192789E-02 AU
 BOTTOM OF VIRTUAL BANDS - BAND    929; K    1; EIG -2.9133433E-02 AU
 TTTTTTTTTTTTTTTTTTTTTTTTTTTTTT PDIG        TELAPSE   116037.31 TCPU   111272.92
 CHARGE NORMALIZATION FACTOR   1.00000000
 TOTAL ATOMIC CHARGES:
   8.8732856   9.1394200   8.8857807   9.1233180   9.2422461   9.2348753
   9.3294106   9.2275322   9.0035896   9.1610474   9.1975201   8.8709576
   9.1284134   9.1558217   9.0669682   9.3820850   9.1982911   9.3820957
   9.4362291   8.9278617   9.2813017   9.2171969   9.1868684   9.2101656
   9.1035186   9.1837135   9.2513136   9.5230898   9.3230093   9.4438891
   9.2500841   9.3484279   9.1634402   9.4052528   9.2169329   9.5591724
   9.5348476   9.3391404   9.4003789   9.4587909   9.1326800   9.3778776
   9.3384410   9.2558350   9.3427584   9.3540634   9.3105939   9.5144658
   9.2878725   9.1674823   9.2496507   9.3242177   9.1725229   9.3210223
   9.3460013   9.4662092   9.3698041   9.3661707   9.6030986   9.3911000
   9.3915358   9.5480300   9.4733386   9.5480846   9.3210452   9.3001361
   9.2299518   9.3319228   9.4780871   9.5508880   9.2567874   9.3135636
  13.9154916  13.1447288  14.1367404  14.1212301  14.0034053  13.9999115
  13.0511009  13.0517626  14.1567961  14.1593732  14.0049137  14.0152546
  13.1033722  13.1347239  14.1078322  14.0501062  14.0431261  14.0078408
  13.0273899  13.0132588  14.1485593  14.1332651  14.0479763  14.0113520
  14.0031819  14.0049221  13.9934968  13.9921663  13.9774968  13.9973496
  14.0055877  14.0087990  14.0087412  13.9969221  13.9576677  14.0077152
  14.0686228  14.0896993  13.9938145  13.9884641  14.0243787  13.9953147
  14.0997665  14.0702216  13.9756771  13.9889079  14.0015602  14.0195731
  14.1643691  14.0509862  13.9882618  14.0066739  13.9951218  14.0162278
  14.1414556  14.0980134  12.9448684  13.6015414  13.0655648  13.5287902
  13.1131140  12.6093106  13.7679629  13.0385269   9.6946120   9.4662543
   9.3799589   9.4430404   9.3133528   9.3696300   9.5345208   9.4057950
   9.2960853   9.6736435   9.4852678   9.8598767   9.2697889   9.3592276
   9.3406040   9.3833271   9.4448210   9.2882018   9.2973814   9.5450873
   9.4246117   9.3788112   9.5829617   9.2312380   9.5235271   9.3224898
   9.2844546   9.6148127   9.8313020   9.4107325   9.3664272   9.3852859
 SUMMED SPIN DENSITY           0.00000000
 TOTAL ATOMIC SPINS  :
   0.0000995   0.0004200  -0.0004756  -0.0000746  -0.0001130   0.0003062
  -0.0000489   0.0002764   0.0002479   0.0007337  -0.0024698  -0.0008328
  -0.0242451  -0.0022774  -0.0009487  -0.0009485   0.0010822   0.0066655
  -0.0071342  -0.0239928  -0.0012408  -0.0012045  -0.0004743   0.0311273
  -0.0019895  -0.0022311   0.0001350   0.0015544   0.0121467  -0.0003031
   0.0054405   0.0112128   0.0037312   0.0048467  -0.0017171   0.0074297
   0.0019058   0.0026299   0.0004394  -0.0028028   0.0004288  -0.0000058
  -0.0033242  -0.0110145   0.0362157  -0.0002607   0.0003497   0.0498424
  -0.0007670  -0.0222305   0.0005417   0.0036222   0.0001608  -0.0005834
  -0.0002628   0.0009432   0.0030669  -0.0001734   0.0273464   0.0005381
   0.0011394  -0.0012597   0.0013647   0.0023257   0.0049160   0.0018013
  -0.0000247  -0.0040220  -0.0214451  -0.0041354   0.0019192   0.0020233
  -0.0017784   0.0013686   0.0004669  -0.0011308  -0.0011845  -0.0004463
  -0.0005145  -0.0007055  -0.0006399  -0.0004409   0.0001106  -0.0000787
  -0.0002038   0.0000588  -0.0009557   0.0000118  -0.0006438   0.0001333
   0.0000359   0.0003696  -0.0006415   0.0007097  -0.0012605  -0.0008021
   0.0009422  -0.0066621   0.0002686  -0.0004518   0.0008798  -0.0006829
   0.0007958  -0.0054948  -0.0031402  -0.0077991  -0.0004306  -0.0019449
   0.0000193  -0.0029606   0.0015989   0.0027211  -0.0199242  -0.0208152
  -0.0388237  -0.0199831  -0.0007387   0.0000385   0.0023702   0.0014072
   0.0033260  -0.0027361  -0.0087000  -0.0114232  -0.0200003  -0.0014082
   0.0009024   0.0011774  -0.0105436  -0.0010322  -0.0024487  -0.6865710
   0.0094311   0.0027388  -0.0177714   0.0006434  -0.0325708   0.0044119
  -0.0033892  -0.0474024   0.0069173   0.1937203  -0.0060692   0.0033634
   0.0045285   0.4229551   0.0122085   0.0001827  -0.0007084   0.0476156
  -0.0008773  -0.0004488  -0.0017807   0.0084864   0.0041670   0.5901149
   0.0020209  -0.0002640  -0.2884695   0.0008867   0.3884858  -0.0062403
  -0.0015555  -0.5361336   0.0134020   0.0120777  -0.0078417   0.0036522
 TTTTTTTTTTTTTTTTTTTTTTTTTTTTTT MOQGAD      TELAPSE   116038.98 TCPU   111274.42
 WARNING **** GENBUD **** COUL. BIPO BUFFER TOO SMALL - TO AVOID I/O SET BIPOSIZE =     4473000
 TTTTTTTTTTTTTTTTTTTTTTTTTTTTTT SHELLX      TELAPSE   116243.51 TCPU   111477.31
 +++ ENERGIES IN A.U. +++
 ::: EXT EL-POLE                                  -4.7004400237966E+04
 ::: EXT EL-SPHEROPOLE                             4.1068389344065E+02
 ::: BIELET ZONE E-E                               5.3612103523034E+04
 ::: TOTAL E-E                                     7.0183871785093E+03
 ::: TOTAL E-N + N-E                              -4.9322509398896E+04
 ::: TOTAL N-N                                    -5.8330679334261E+03
 ::: KINETIC ENERGY                                2.4362097436490E+04
 ::: PSEUDO TOTAL   ENERGY                        -2.3775092717323E+04
 ::: VIRIAL COEFFICIENT                            1.0121944117904E+00
 TTTTTTTTTTTTTTTTTTTTTTTTTTTTTT MONMO3      TELAPSE   116260.84 TCPU   111494.62
 NUMERICALLY INTEGRATED DENSITY    928.0001563551    928.0001006433
 TTTTTTTTTTTTTTTTTTTTTTTTTTTTTT NUMDFT      TELAPSE   116268.38 TCPU   111502.15
 CYC 138 ETOT(AU) -2.551217958055E+04 DETOT  1.81E-07 tst  8.38E-10 PX  6.87E-05

 == SCF ENDED - CONVERGENCE ON ENERGY      E(AU) -2.5512179580550E+04 CYCLES 138


 ENERGY EXPRESSION=HARTREE+FOCK EXCH*0.20000+(BECKE  EXCH)*0.80000+LYP    CORR

 FINITE TEMPERATURE DFT CALCULATION 
 TEMPERATURE      (T)    1.000000000000E-13 HARTREE 
 ENERGY           (E)   -2.551217958055E+04
 FREE ENERGY      (F)   -2.551217958055E+04
 ELECTRON ENTROPY (S)    0.000000000000E+00
 (E(T)+F(T))/2    (E0)  -2.551217958055E+04


 TOTAL ENERGY(DFT)(AU)(138) -2.5512179580550E+04 DE 1.8E-07 tester 8.4E-10
 TTTTTTTTTTTTTTTTTTTTTTTTTTTTTT EDFT        TELAPSE   116456.80 TCPU   111685.79
 EIGENVECTORS IN FORTRAN UNIT  8
 TTTTTTTTTTTTTTTTTTTTTTTTTTTTTT END         TELAPSE   116528.98 TCPU   111752.27
 EEEEEEEEEE TERMINATION  DATE 25 07 2015 TIME 16:10:02.0
NODE    0 CPU TIME =    111752.268
    TOTAL CPU TIME =  26809282.863
