--------------------------------------------------------------------------
WARNING: Open MPI will create a shared memory backing file in a
directory that appears to be mounted on a network filesystem.
Creating the shared memory backup file on a network file system, such
as NFS or Lustre is not recommended -- it may cause excessive network
traffic to your file servers and/or cause shared memory traffic in
Open MPI to be much slower than expected.

You may want to check what the typical temporary directory is on your
node.  Possible sources of the location of this temporary directory
include the $TEMPDIR, $TEMP, and $TMP environment variables.

Note, too, that system administrators can set a list of filesystems
where Open MPI is disallowed from creating temporary files by settings
the MCA parameter "orte_no_session_dir".

  Local host: r2i5n15
  Fileame:    /ichec/work/scratch/tmp/490649/openmpi-sessions-emehes@r2i5n15_0/1689/1/shared_mem_pool.r2i5n15

You can set the MCA paramter shmem_mmap_enable_nfs_warning to 0 to
disable this message.
--------------------------------------------------------------------------
--------------------------------------------------------------------------
WARNING: It appears that your OpenFabrics subsystem is configured to only
allow registering part of your physical memory.  This can cause MPI jobs to
run with erratic performance, hang, and/or crash.

This may be caused by your OpenFabrics vendor limiting the amount of
physical memory that can be registered.  You should investigate the
relevant Linux kernel module parameters that control how much physical
memory can be registered, and increase them to allow registering all
physical memory on your machine.

See this Open MPI FAQ item for more information on these Linux kernel module
parameters:

    http://www.open-mpi.org/faq/?category=openfabrics#ib-locked-pages

  Local host:              r2i6n3
  Registerable memory:     32768 MiB
  Total memory:            65507 MiB

Your MPI job will continue, but may be behave poorly and/or hang.
--------------------------------------------------------------------------
         192 PROCESSORS WORKING

         
 *******************************************************************************
 *                                                                             *
 *                                CRYSTAL09                                    *
 *                              public : 2.0                                   *
 *                      December 10th, 2012 - parallel executable              *
 *                                                                             *
 *                                                                             *
 *                                                                             *
 *                              MAIN AUTHORS                                   *
 *                                                                             *
 *    R. DOVESI(1,10), V.R. SAUNDERS(2), C. ROETTI(1,10), R. ORLANDO (1,3),    *
 *  C.M. ZICOVICH-WILSON(1,4), F. PASCALE(5), B. CIVALLERI(1,10), K. DOLL(6),  *
 *       N.M. HARRISON(2,7), I. J. BUSH(2), Ph. D'ARCO(8), M. LLUNELL(9)       *
 *                                                                             *
 * (1) THEORETICAL CHEMISTRY GROUP - UNIVERSITA' DI TORINO - TORINO (ITALY)    *
 *      http://www.crystal.unito.it                                            *
 * (2) COMPUTATIONAL SCIENCE & ENGINEERING DEPARTMENT - STFC DARESBURY LABORATO*Y (UK)
 *     http://www.cse.stfc.ac.uk/cmg/CRYSTAL/                                  *
 * (3) UNIVERSITA' DEL PIEMONTE ORIENTALE - ALESSANDRIA (ITALY)                *
 * (4) UNIVERSIDAD AUTONOMA DEL ESTADO DE MORELOS - CUERNAVACA (MEXICO)        *
 * (5) UNIVERSITE' HENRI POINCARE' - NANCY (FRANCE)                            *
 * (6) MPI FUER FESTKOERPERFORSCHUNG - STUTTGART (GERMANY)                     *
 * (7) IMPERIAL COLLEGE - LONDON (UK)                                          *
 * (8) UNIVERSITE' PIERRE ET MARIE CURIE - PARIS (FRANCE)                      *
 * (9) UNIVERSIDAD DE BARCELONA - BARCELONA (SPAIN)                            *
 *(10) NIS - NANOSTRUCTURED INTERFACES AND SURFACES - TORINO (ITALY)           *
 *     http://www.crystal.unito.it                                             *
 *******************************************************************************
 EEEEEEEEEE STARTING  DATE 22 04 2015 TIME 13:25:29.0
 Created with astools                                                            

 CRYSTAL CALCULATION
 (INPUT ACCORDING TO THE INTERNATIONAL TABLES FOR X-RAY CRYSTALLOGRAPHY)
 CRYSTAL FAMILY                       :  TRICLINIC   
 CRYSTAL CLASS  (GROTH - 1921)        :  TRICLINIC PEDIAL                     

 SPACE GROUP (NONCENTROSYMMETRIC)     :  P 1             

 LATTICE PARAMETERS  (ANGSTROMS AND DEGREES) - CONVENTIONAL CELL
        A           B           C        ALPHA        BETA       GAMMA
    11.07340    10.63895    21.60988    90.00000    90.00000    90.00000


 NUMBER OF IRREDUCIBLE ATOMS IN THE CONVENTIONAL CELL:  156

 INPUT COORDINATES

 ATOM AT. N.              COORDINATES
   1   8     2.173300000000E-02  1.317830000000E-01  9.438100000000E-02
   2   8     6.984700000000E-02  6.061480000000E-01  6.918000000000E-02
   3   8     5.627080000000E-01  1.123920000000E-01  5.133900000000E-02
   4   8     6.207960000000E-01  6.057680000000E-01  3.950300000000E-02
   5   8     8.374200000000E-01  2.764970000000E-01  4.713900000000E-02
   6   8     4.934170000000E-01  8.222820000000E-01  8.494900000000E-02
   7   8     5.489910000000E-01  4.118210000000E-01  9.690460000000E-01
   8   8     3.308670000000E-01  5.111700000000E-01  4.450000000000E-03
   9   8     1.763720000000E-01  4.567610000000E-01  5.509230000000E-01
  10   8     1.908700000000E-01  9.660200000000E-01  5.542570000000E-01
  11   8     6.440550000000E-01  4.176090000000E-01  5.727970000000E-01
  12   8     7.218290000000E-01  9.940890000000E-01  5.787840000000E-01
  13   8     8.117410000000E-01  4.836400000000E-01  6.361600000000E-01
  14   8     5.338330000000E-01  5.854140000000E-01  6.147440000000E-01
  15   8     3.376120000000E-01  2.673170000000E-01  5.777220000000E-01
  16   8     8.569400000000E-01  2.605720000000E-01  5.855440000000E-01
  17   8     1.233200000000E-02  9.476400000000E-02  5.993160000000E-01
  18   8     2.351030000000E-01  6.787890000000E-01  6.022020000000E-01
  19   8     1.008327000000E+00  6.214290000000E-01  5.858720000000E-01
  20   8     6.026800000000E-02  8.078220000000E-01  6.623860000000E-01
  21   8     8.357950000000E-01  7.895120000000E-01  6.054890000000E-01
  22   8     3.739150000000E-01  9.335820000000E-01  6.255690000000E-01
  23   8     3.558400000000E-01  1.329010000000E-01  6.822040000000E-01
  24   8     2.381500000000E-01  8.107640000000E-01  8.439250000000E-01
  25   8     2.401990000000E-01  3.567200000000E-01  6.788650000000E-01
  26   8     1.274070000000E-01  1.919590000000E-01  9.228270000000E-01
  27   8     1.654100000000E-01  5.912530000000E-01  7.097440000000E-01
  28   8     4.739790000000E-01  3.532020000000E-01  6.626850000000E-01
  29   8     3.051820000000E-01  3.004000000000E-02  8.812770000000E-01
  30   8     6.895250000000E-01  1.704350000000E-01  6.712490000000E-01
  31   8     1.547180000000E-01  5.827810000000E-01  9.307730000000E-01
  32   8     7.787640000000E-01  1.750900000000E-02  8.320470000000E-01
  33   8     3.549430000000E-01  3.727480000000E-01  9.063130000000E-01
  34   8     2.347720000000E-01  4.894940000000E-01  8.234420000000E-01
  35   8     4.498000000000E-02  8.429580000000E-01  7.801940000000E-01
  36   8     9.249170000000E-01  7.885720000000E-01  2.019000000000E-02
  37   8     1.581140000000E-01  1.568600000000E-02  7.005830000000E-01
  38   8     8.481220000000E-01  5.196770000000E-01  7.826890000000E-01
  39   8     4.376800000000E-01  5.970760000000E-01  8.482300000000E-01
  40   8     8.202980000000E-01  7.828630000000E-01  8.012170000000E-01
  41   8     3.447460000000E-01 -1.093900000000E-02  2.757600000000E-02
  42   8     4.660730000000E-01  8.337620000000E-01  8.562060000000E-01
  43   8     4.858160000000E-01  8.065600000000E-01  9.688850000000E-01
  44   8     8.760010000000E-01 -4.082000000000E-03  9.490090000000E-01
  45   8     6.805530000000E-01  1.322890000000E-01  9.310470000000E-01
  46   8     9.102410000000E-01  6.557660000000E-01  7.035740000000E-01
  47   8     3.637000000000E-02  8.421970000000E-01  9.105460000000E-01
  48   8     8.744300000000E-02  9.710550000000E-01  1.387600000000E-02
  49   8     1.034519000000E+00  3.859240000000E-01  8.608430000000E-01
  50   8     5.206400000000E-02  1.270120000000E-01  8.087010000000E-01
  51   8     8.873370000000E-01  2.155000000000E-01  8.886860000000E-01
  52   8     8.958830000000E-01  9.638740000000E-01  7.185210000000E-01
  53   8     3.700760000000E-01 -1.982100000000E-02  7.676200000000E-01
  54   8     4.535430000000E-01  3.790010000000E-01  7.940040000000E-01
  55   8     6.216610000000E-01  7.866240000000E-01  7.107690000000E-01
  56   8     1.004933000000E+00  4.174090000000E-01  6.965520000000E-01
  57   8     6.904190000000E-01  3.383020000000E-01  8.190790000000E-01
  58   8     2.797160000000E-01  8.146980000000E-01  7.074760000000E-01
  59   8     6.065000000000E-01  6.345430000000E-01  9.189440000000E-01
  60   8     7.749550000000E-01  4.759060000000E-01  9.787010000000E-01
  61   8     3.212200000000E-02  6.444340000000E-01  8.326780000000E-01
  62   8     6.401640000000E-01  4.561630000000E-01  7.163310000000E-01
  63   8     2.750260000000E-01  7.471810000000E-01  1.808900000000E-02
  64   8     3.882890000000E-01  2.844750000000E-01  3.259300000000E-02
  65  14     1.678820000000E-01  5.231680000000E-01  1.106070000000E-01
  66  14     4.517860000000E-01  2.012220000000E-01  8.901500000000E-02
  67  14     7.941100000000E-02  3.642320000000E-01  1.640050000000E-01
  68  14     2.977250000000E-01  8.730400000000E-02  1.414020000000E-01
  69  14     1.893470000000E-01  2.095970000000E-01  2.162280000000E-01
  70  14     4.249390000000E-01  4.511250000000E-01  2.201710000000E-01
  71  14     1.202800000000E-01  1.009806000000E+00  8.776200000000E-02
  72  14     5.019160000000E-01  6.205890000000E-01  8.257800000000E-02
  73  14     5.420600000000E-02  8.437790000000E-01  1.554230000000E-01
  74  14     3.326170000000E-01  6.144660000000E-01  1.629280000000E-01
  75  14     1.754180000000E-01  7.125200000000E-01  2.206370000000E-01
  76  14     4.127020000000E-01  9.654880000000E-01  2.169880000000E-01
  77  14     6.394530000000E-01  5.341650000000E-01  9.726400000000E-01
  78  14     8.753000000000E-01  1.481490000000E-01  8.306100000000E-02
  79  14     5.559880000000E-01  3.382090000000E-01  1.553390000000E-01
  80  14     7.599500000000E-01  4.845600000000E-02  1.580370000000E-01
  81  14     6.719210000000E-01  2.066160000000E-01  2.191820000000E-01
  82  14     9.216570000000E-01  4.684340000000E-01  2.142710000000E-01
  83  14     6.581560000000E-01  9.769780000000E-01  6.121500000000E-02
  84  14     9.586460000000E-01  7.088100000000E-01  8.574900000000E-02
  85  14     4.928120000000E-01  7.901090000000E-01  1.661160000000E-01
  86  14     8.064100000000E-01  5.849140000000E-01  1.413170000000E-01
  87  14     6.785830000000E-01  7.059130000000E-01  2.084130000000E-01
  88  14     9.172850000000E-01  9.528350000000E-01  2.175240000000E-01
  89  14     5.273200000000E-02  8.383900000000E-02  2.755140000000E-01
  90  14     3.024610000000E-01  3.282800000000E-01  2.864290000000E-01
  91  14     5.135800000000E-02  5.802970000000E-01  2.818380000000E-01
  92  14     2.983500000000E-01  8.383040000000E-01  2.847360000000E-01
  93  14     5.510830000000E-01  7.752100000000E-02  2.833280000000E-01
  94  14     8.029610000000E-01  3.339540000000E-01  2.796850000000E-01
  95  14     5.571180000000E-01  5.822510000000E-01  2.761980000000E-01
  96  14     7.978290000000E-01  8.248230000000E-01  2.818880000000E-01
  97  14     8.945720000000E-01  4.074980000000E-01  1.012492000000E+00
  98  14     2.888460000000E-01  6.376000000000E-01  9.624920000000E-01
  99  14     4.042120000000E-01  3.878770000000E-01  9.778740000000E-01
 100  14     3.911800000000E-01  8.494250000000E-01  2.195000000000E-02
 101  14     1.722480000000E-01  4.538810000000E-01  3.478560000000E-01
 102  14     4.298220000000E-01  2.037810000000E-01  3.480470000000E-01
 103  14     3.980500000000E-02  3.289590000000E-01  4.104260000000E-01
 104  14     3.039530000000E-01  7.636300000000E-02  4.101430000000E-01
 105  14     1.709010000000E-01  2.040770000000E-01  4.673250000000E-01
 106  14     4.279990000000E-01  4.597740000000E-01  4.688870000000E-01
 107  14     1.700720000000E-01  9.599040000000E-01  3.458410000000E-01
 108  14     4.347830000000E-01  7.098590000000E-01  3.411550000000E-01
 109  14     4.830900000000E-02  8.271000000000E-01  4.081820000000E-01
 110  14     3.080120000000E-01  5.860470000000E-01  4.032390000000E-01
 111  14     1.996740000000E-01  7.255230000000E-01  4.652170000000E-01
 112  14     4.614510000000E-01  9.958680000000E-01  4.742280000000E-01
 113  14     6.753230000000E-01  4.622230000000E-01  3.432470000000E-01
 114  14     9.293090000000E-01  2.054130000000E-01  3.406920000000E-01
 115  14     5.581250000000E-01  3.313250000000E-01  4.079930000000E-01
 116  14     8.095170000000E-01  8.097500000000E-02  4.077180000000E-01
 117  14     7.102130000000E-01  2.355030000000E-01  4.670920000000E-01
 118  14     8.633830000000E-01  4.072670000000E-01  4.651280000000E-01
 119  14     6.782110000000E-01  9.504900000000E-01  3.484270000000E-01
 120  14     9.240470000000E-01  6.996550000000E-01  3.458720000000E-01
 121  14     5.475360000000E-01  8.316820000000E-01  4.139760000000E-01
 122  14     7.937620000000E-01  5.850590000000E-01  4.120350000000E-01
 123  14     6.773020000000E-01  7.159210000000E-01  4.821370000000E-01
 124  14     9.299180000000E-01  9.520270000000E-01  4.742420000000E-01
 125  14     7.710700000000E-02  5.746900000000E-02  5.331450000000E-01
 126  14     2.757250000000E-01  3.524690000000E-01  5.229450000000E-01
 127  14     1.438360000000E-01  6.075730000000E-01  5.508910000000E-01
 128  14     3.316120000000E-01  9.189320000000E-01  5.525090000000E-01
 129  14     6.383510000000E-01  1.180080000000E-01  6.069630000000E-01
 130  14     8.061660000000E-01  3.994130000000E-01  5.696600000000E-01
 131  14     5.660700000000E-01  5.580810000000E-01  5.370880000000E-01
 132  14     7.833860000000E-01  8.720870000000E-01  5.443700000000E-01
 133  14     3.499890000000E-01  2.692840000000E-01  6.525330000000E-01
 134  14     1.983840000000E-01  7.176390000000E-01  6.721480000000E-01
 135  14     5.807910000000E-01  4.511470000000E-01  6.466340000000E-01
 136  14     9.218180000000E-01  1.814630000000E-01  6.454880000000E-01
 137  14     5.802440000000E-01  7.975920000000E-01  6.424050000000E-01
 138  14     9.456390000000E-01  7.148500000000E-01  6.356810000000E-01
 139  14     2.662050000000E-01  1.310070000000E-01  9.367990000000E-01
 140  14     3.500880000000E-01  9.170110000000E-01  8.350270000000E-01
 141  14     7.808940000000E-01  9.264570000000E-01  7.696410000000E-01
 142  14     4.127900000000E-02  9.370910000000E-01  7.198780000000E-01
 143  14     1.155660000000E-01  5.121980000000E-01  8.664160000000E-01
 144  14     9.028250000000E-01  6.668760000000E-01  7.796910000000E-01
 145  14     4.676770000000E-01  7.078000000000E-01  9.042870000000E-01
 146  14     8.067230000000E-01  8.600300000000E-02  8.979690000000E-01
 147  14     3.446700000000E-02  2.188780000000E-01  8.643360000000E-01
 148  14     9.566600000000E-02  7.988110000000E-01  8.468680000000E-01
 149  14     5.447550000000E-01  9.336400000000E-02  9.571900000000E-01
 150  14     5.849230000000E-01  3.357710000000E-01  7.639460000000E-01
 151  14     8.596260000000E-01  4.376750000000E-01  7.073160000000E-01
 152  14     3.092420000000E-01  9.806720000000E-01  6.967610000000E-01
 153  14     9.799110000000E-01  9.001980000000E-01  9.752010000000E-01
 154  14     1.449640000000E-01  4.366210000000E-01  7.199230000000E-01
 155  14     3.774360000000E-01  4.615410000000E-01  8.437180000000E-01
 156  14     7.955700000000E-01  4.165180000000E-01  8.558840000000E-01

 *******************************************************************************

 << INFORMATION >>: FROM NOW ON, ALL COORDINATES REFER TO THE PRIMITIVE CELL

 *******************************************************************************

 LATTICE PARAMETERS  (ANGSTROMS AND DEGREES) - PRIMITIVE CELL
       A          B          C         ALPHA     BETA     GAMMA        VOLUME
   11.07340   10.63895   21.60988    90.00000  90.00000  90.00000   2545.845654

 COORDINATES OF THE EQUIVALENT ATOMS (FRACTIONAL UNITS)

 N. ATOM EQUIV AT. N.          X                  Y                  Z

   1   1   1    8 O     2.17330000000E-02  1.31783000000E-01  9.43810000000E-02

   2   2   1    8 O     6.98470000000E-02 -3.93852000000E-01  6.91800000000E-02

   3   3   1    8 O    -4.37292000000E-01  1.12392000000E-01  5.13390000000E-02

   4   4   1    8 O    -3.79204000000E-01 -3.94232000000E-01  3.95030000000E-02

   5   5   1    8 O    -1.62580000000E-01  2.76497000000E-01  4.71390000000E-02

   6   6   1    8 O     4.93417000000E-01 -1.77718000000E-01  8.49490000000E-02

   7   7   1    8 O    -4.51009000000E-01  4.11821000000E-01 -3.09540000000E-02

   8   8   1    8 O     3.30867000000E-01 -4.88830000000E-01  4.45000000000E-03

   9   9   1    8 O     1.76372000000E-01  4.56761000000E-01 -4.49077000000E-01

  10  10   1    8 O     1.90870000000E-01 -3.39800000000E-02 -4.45743000000E-01

  11  11   1    8 O    -3.55945000000E-01  4.17609000000E-01 -4.27203000000E-01

  12  12   1    8 O    -2.78171000000E-01 -5.91100000000E-03 -4.21216000000E-01

  13  13   1    8 O    -1.88259000000E-01  4.83640000000E-01 -3.63840000000E-01

  14  14   1    8 O    -4.66167000000E-01 -4.14586000000E-01 -3.85256000000E-01

  15  15   1    8 O     3.37612000000E-01  2.67317000000E-01 -4.22278000000E-01

  16  16   1    8 O    -1.43060000000E-01  2.60572000000E-01 -4.14456000000E-01

  17  17   1    8 O     1.23320000000E-02  9.47640000000E-02 -4.00684000000E-01

  18  18   1    8 O     2.35103000000E-01 -3.21211000000E-01 -3.97798000000E-01

  19  19   1    8 O     8.32700000000E-03 -3.78571000000E-01 -4.14128000000E-01

  20  20   1    8 O     6.02680000000E-02 -1.92178000000E-01 -3.37614000000E-01

  21  21   1    8 O    -1.64205000000E-01 -2.10488000000E-01 -3.94511000000E-01

  22  22   1    8 O     3.73915000000E-01 -6.64180000000E-02 -3.74431000000E-01

  23  23   1    8 O     3.55840000000E-01  1.32901000000E-01 -3.17796000000E-01

  24  24   1    8 O     2.38150000000E-01 -1.89236000000E-01 -1.56075000000E-01

  25  25   1    8 O     2.40199000000E-01  3.56720000000E-01 -3.21135000000E-01

  26  26   1    8 O     1.27407000000E-01  1.91959000000E-01 -7.71730000000E-02

  27  27   1    8 O     1.65410000000E-01 -4.08747000000E-01 -2.90256000000E-01

  28  28   1    8 O     4.73979000000E-01  3.53202000000E-01 -3.37315000000E-01

  29  29   1    8 O     3.05182000000E-01  3.00400000000E-02 -1.18723000000E-01

  30  30   1    8 O    -3.10475000000E-01  1.70435000000E-01 -3.28751000000E-01

  31  31   1    8 O     1.54718000000E-01 -4.17219000000E-01 -6.92270000000E-02

  32  32   1    8 O    -2.21236000000E-01  1.75090000000E-02 -1.67953000000E-01

  33  33   1    8 O     3.54943000000E-01  3.72748000000E-01 -9.36870000000E-02

  34  34   1    8 O     2.34772000000E-01  4.89494000000E-01 -1.76558000000E-01

  35  35   1    8 O     4.49800000000E-02 -1.57042000000E-01 -2.19806000000E-01

  36  36   1    8 O    -7.50830000000E-02 -2.11428000000E-01  2.01900000000E-02

  37  37   1    8 O     1.58114000000E-01  1.56860000000E-02 -2.99417000000E-01

  38  38   1    8 O    -1.51878000000E-01 -4.80323000000E-01 -2.17311000000E-01

  39  39   1    8 O     4.37680000000E-01 -4.02924000000E-01 -1.51770000000E-01

  40  40   1    8 O    -1.79702000000E-01 -2.17137000000E-01 -1.98783000000E-01

  41  41   1    8 O     3.44746000000E-01 -1.09390000000E-02  2.75760000000E-02

  42  42   1    8 O     4.66073000000E-01 -1.66238000000E-01 -1.43794000000E-01

  43  43   1    8 O     4.85816000000E-01 -1.93440000000E-01 -3.11150000000E-02

  44  44   1    8 O    -1.23999000000E-01 -4.08200000000E-03 -5.09910000000E-02

  45  45   1    8 O    -3.19447000000E-01  1.32289000000E-01 -6.89530000000E-02

  46  46   1    8 O    -8.97590000000E-02 -3.44234000000E-01 -2.96426000000E-01

  47  47   1    8 O     3.63700000000E-02 -1.57803000000E-01 -8.94540000000E-02

  48  48   1    8 O     8.74430000000E-02 -2.89450000000E-02  1.38760000000E-02

  49  49   1    8 O     3.45190000000E-02  3.85924000000E-01 -1.39157000000E-01

  50  50   1    8 O     5.20640000000E-02  1.27012000000E-01 -1.91299000000E-01

  51  51   1    8 O    -1.12663000000E-01  2.15500000000E-01 -1.11314000000E-01

  52  52   1    8 O    -1.04117000000E-01 -3.61260000000E-02 -2.81479000000E-01

  53  53   1    8 O     3.70076000000E-01 -1.98210000000E-02 -2.32380000000E-01

  54  54   1    8 O     4.53543000000E-01  3.79001000000E-01 -2.05996000000E-01

  55  55   1    8 O    -3.78339000000E-01 -2.13376000000E-01 -2.89231000000E-01

  56  56   1    8 O     4.93300000000E-03  4.17409000000E-01 -3.03448000000E-01

  57  57   1    8 O    -3.09581000000E-01  3.38302000000E-01 -1.80921000000E-01

  58  58   1    8 O     2.79716000000E-01 -1.85302000000E-01 -2.92524000000E-01

  59  59   1    8 O    -3.93500000000E-01 -3.65457000000E-01 -8.10560000000E-02

  60  60   1    8 O    -2.25045000000E-01  4.75906000000E-01 -2.12990000000E-02

  61  61   1    8 O     3.21220000000E-02 -3.55566000000E-01 -1.67322000000E-01

  62  62   1    8 O    -3.59836000000E-01  4.56163000000E-01 -2.83669000000E-01

  63  63   1    8 O     2.75026000000E-01 -2.52819000000E-01  1.80890000000E-02

  64  64   1    8 O     3.88289000000E-01  2.84475000000E-01  3.25930000000E-02

  65  65   1   14 SI    1.67882000000E-01 -4.76832000000E-01  1.10607000000E-01

  66  66   1   14 SI    4.51786000000E-01  2.01222000000E-01  8.90150000000E-02

  67  67   1   14 SI    7.94110000000E-02  3.64232000000E-01  1.64005000000E-01

  68  68   1   14 SI    2.97725000000E-01  8.73040000000E-02  1.41402000000E-01

  69  69   1   14 SI    1.89347000000E-01  2.09597000000E-01  2.16228000000E-01

  70  70   1   14 SI    4.24939000000E-01  4.51125000000E-01  2.20171000000E-01

  71  71   1   14 SI    1.20280000000E-01  9.80600000000E-03  8.77620000000E-02

  72  72   1   14 SI   -4.98084000000E-01 -3.79411000000E-01  8.25780000000E-02

  73  73   1   14 SI    5.42060000000E-02 -1.56221000000E-01  1.55423000000E-01

  74  74   1   14 SI    3.32617000000E-01 -3.85534000000E-01  1.62928000000E-01

  75  75   1   14 SI    1.75418000000E-01 -2.87480000000E-01  2.20637000000E-01

  76  76   1   14 SI    4.12702000000E-01 -3.45120000000E-02  2.16988000000E-01

  77  77   1   14 SI   -3.60547000000E-01 -4.65835000000E-01 -2.73600000000E-02

  78  78   1   14 SI   -1.24700000000E-01  1.48149000000E-01  8.30610000000E-02

  79  79   1   14 SI   -4.44012000000E-01  3.38209000000E-01  1.55339000000E-01

  80  80   1   14 SI   -2.40050000000E-01  4.84560000000E-02  1.58037000000E-01

  81  81   1   14 SI   -3.28079000000E-01  2.06616000000E-01  2.19182000000E-01

  82  82   1   14 SI   -7.83430000000E-02  4.68434000000E-01  2.14271000000E-01

  83  83   1   14 SI   -3.41844000000E-01 -2.30220000000E-02  6.12150000000E-02

  84  84   1   14 SI   -4.13540000000E-02 -2.91190000000E-01  8.57490000000E-02

  85  85   1   14 SI    4.92812000000E-01 -2.09891000000E-01  1.66116000000E-01

  86  86   1   14 SI   -1.93590000000E-01 -4.15086000000E-01  1.41317000000E-01

  87  87   1   14 SI   -3.21417000000E-01 -2.94087000000E-01  2.08413000000E-01

  88  88   1   14 SI   -8.27150000000E-02 -4.71650000000E-02  2.17524000000E-01

  89  89   1   14 SI    5.27320000000E-02  8.38390000000E-02  2.75514000000E-01

  90  90   1   14 SI    3.02461000000E-01  3.28280000000E-01  2.86429000000E-01

  91  91   1   14 SI    5.13580000000E-02 -4.19703000000E-01  2.81838000000E-01

  92  92   1   14 SI    2.98350000000E-01 -1.61696000000E-01  2.84736000000E-01

  93  93   1   14 SI   -4.48917000000E-01  7.75210000000E-02  2.83328000000E-01

  94  94   1   14 SI   -1.97039000000E-01  3.33954000000E-01  2.79685000000E-01

  95  95   1   14 SI   -4.42882000000E-01 -4.17749000000E-01  2.76198000000E-01

  96  96   1   14 SI   -2.02171000000E-01 -1.75177000000E-01  2.81888000000E-01

  97  97   1   14 SI   -1.05428000000E-01  4.07498000000E-01  1.24920000000E-02

  98  98   1   14 SI    2.88846000000E-01 -3.62400000000E-01 -3.75080000000E-02

  99  99   1   14 SI    4.04212000000E-01  3.87877000000E-01 -2.21260000000E-02

 100 100   1   14 SI    3.91180000000E-01 -1.50575000000E-01  2.19500000000E-02

 101 101   1   14 SI    1.72248000000E-01  4.53881000000E-01  3.47856000000E-01

 102 102   1   14 SI    4.29822000000E-01  2.03781000000E-01  3.48047000000E-01

 103 103   1   14 SI    3.98050000000E-02  3.28959000000E-01  4.10426000000E-01

 104 104   1   14 SI    3.03953000000E-01  7.63630000000E-02  4.10143000000E-01

 105 105   1   14 SI    1.70901000000E-01  2.04077000000E-01  4.67325000000E-01

 106 106   1   14 SI    4.27999000000E-01  4.59774000000E-01  4.68887000000E-01

 107 107   1   14 SI    1.70072000000E-01 -4.00960000000E-02  3.45841000000E-01

 108 108   1   14 SI    4.34783000000E-01 -2.90141000000E-01  3.41155000000E-01

 109 109   1   14 SI    4.83090000000E-02 -1.72900000000E-01  4.08182000000E-01

 110 110   1   14 SI    3.08012000000E-01 -4.13953000000E-01  4.03239000000E-01

 111 111   1   14 SI    1.99674000000E-01 -2.74477000000E-01  4.65217000000E-01

 112 112   1   14 SI    4.61451000000E-01 -4.13200000000E-03  4.74228000000E-01

 113 113   1   14 SI   -3.24677000000E-01  4.62223000000E-01  3.43247000000E-01

 114 114   1   14 SI   -7.06910000000E-02  2.05413000000E-01  3.40692000000E-01

 115 115   1   14 SI   -4.41875000000E-01  3.31325000000E-01  4.07993000000E-01

 116 116   1   14 SI   -1.90483000000E-01  8.09750000000E-02  4.07718000000E-01

 117 117   1   14 SI   -2.89787000000E-01  2.35503000000E-01  4.67092000000E-01

 118 118   1   14 SI   -1.36617000000E-01  4.07267000000E-01  4.65128000000E-01

 119 119   1   14 SI   -3.21789000000E-01 -4.95100000000E-02  3.48427000000E-01

 120 120   1   14 SI   -7.59530000000E-02 -3.00345000000E-01  3.45872000000E-01

 121 121   1   14 SI   -4.52464000000E-01 -1.68318000000E-01  4.13976000000E-01

 122 122   1   14 SI   -2.06238000000E-01 -4.14941000000E-01  4.12035000000E-01

 123 123   1   14 SI   -3.22698000000E-01 -2.84079000000E-01  4.82137000000E-01

 124 124   1   14 SI   -7.00820000000E-02 -4.79730000000E-02  4.74242000000E-01

 125 125   1   14 SI    7.71070000000E-02  5.74690000000E-02 -4.66855000000E-01

 126 126   1   14 SI    2.75725000000E-01  3.52469000000E-01 -4.77055000000E-01

 127 127   1   14 SI    1.43836000000E-01 -3.92427000000E-01 -4.49109000000E-01

 128 128   1   14 SI    3.31612000000E-01 -8.10680000000E-02 -4.47491000000E-01

 129 129   1   14 SI   -3.61649000000E-01  1.18008000000E-01 -3.93037000000E-01

 130 130   1   14 SI   -1.93834000000E-01  3.99413000000E-01 -4.30340000000E-01

 131 131   1   14 SI   -4.33930000000E-01 -4.41919000000E-01 -4.62912000000E-01

 132 132   1   14 SI   -2.16614000000E-01 -1.27913000000E-01 -4.55630000000E-01

 133 133   1   14 SI    3.49989000000E-01  2.69284000000E-01 -3.47467000000E-01

 134 134   1   14 SI    1.98384000000E-01 -2.82361000000E-01 -3.27852000000E-01

 135 135   1   14 SI   -4.19209000000E-01  4.51147000000E-01 -3.53366000000E-01

 136 136   1   14 SI   -7.81820000000E-02  1.81463000000E-01 -3.54512000000E-01

 137 137   1   14 SI   -4.19756000000E-01 -2.02408000000E-01 -3.57595000000E-01

 138 138   1   14 SI   -5.43610000000E-02 -2.85150000000E-01 -3.64319000000E-01

 139 139   1   14 SI    2.66205000000E-01  1.31007000000E-01 -6.32010000000E-02

 140 140   1   14 SI    3.50088000000E-01 -8.29890000000E-02 -1.64973000000E-01

 141 141   1   14 SI   -2.19106000000E-01 -7.35430000000E-02 -2.30359000000E-01

 142 142   1   14 SI    4.12790000000E-02 -6.29090000000E-02 -2.80122000000E-01

 143 143   1   14 SI    1.15566000000E-01 -4.87802000000E-01 -1.33584000000E-01

 144 144   1   14 SI   -9.71750000000E-02 -3.33124000000E-01 -2.20309000000E-01

 145 145   1   14 SI    4.67677000000E-01 -2.92200000000E-01 -9.57130000000E-02

 146 146   1   14 SI   -1.93277000000E-01  8.60030000000E-02 -1.02031000000E-01

 147 147   1   14 SI    3.44670000000E-02  2.18878000000E-01 -1.35664000000E-01

 148 148   1   14 SI    9.56660000000E-02 -2.01189000000E-01 -1.53132000000E-01

 149 149   1   14 SI   -4.55245000000E-01  9.33640000000E-02 -4.28100000000E-02

 150 150   1   14 SI   -4.15077000000E-01  3.35771000000E-01 -2.36054000000E-01

 151 151   1   14 SI   -1.40374000000E-01  4.37675000000E-01 -2.92684000000E-01

 152 152   1   14 SI    3.09242000000E-01 -1.93280000000E-02 -3.03239000000E-01

 153 153   1   14 SI   -2.00890000000E-02 -9.98020000000E-02 -2.47990000000E-02

 154 154   1   14 SI    1.44964000000E-01  4.36621000000E-01 -2.80077000000E-01

 155 155   1   14 SI    3.77436000000E-01  4.61541000000E-01 -1.56282000000E-01

 156 156   1   14 SI   -2.04430000000E-01  4.16518000000E-01 -1.44116000000E-01

 NUMBER OF SYMMETRY OPERATORS         :    1
 *******************************************************************************
 * GEOMETRY EDITING - INPUT COORDINATES ARE GIVEN IN ANGSTROM         
 *******************************************************************************

 GCALCO - MAX INDICES DIRECT LATTICE VECTOR    18    19     9
 NO.OF VECTORS CREATED 6999 STARS 1061 RMAX   306.06095 BOHR

 GEOMETRY FOR WAVE FUNCTION - DIMENSIONALITY OF THE SYSTEM    3
 (NON PERIODIC DIRECTION: LATTICE PARAMETER FORMALLY SET TO 500)
 *******************************************************************************
 LATTICE PARAMETERS (ANGSTROMS AND DEGREES) - BOHR = 0.5291772083 ANGSTROM
 PRIMITIVE CELL - CENTRING CODE 1/0 VOLUME=  2545.845654 - DENSITY  2.347 g/cm^3
         A              B              C           ALPHA      BETA       GAMMA 
    11.07340000    10.63894900    21.60988000    90.000000  90.000000  90.000000
 *******************************************************************************
 ATOMS IN THE ASYMMETRIC UNIT  156 - ATOMS IN THE UNIT CELL:  156
     ATOM              X/A                 Y/B                 Z/C    
 *******************************************************************************
   1 T   8 O     2.173300000000E-02  1.317830000000E-01  9.438100000000E-02
   2 T   8 O     6.984700000000E-02 -3.938520000000E-01  6.918000000000E-02
   3 T   8 O    -4.372920000000E-01  1.123920000000E-01  5.133900000000E-02
   4 T   8 O    -3.792040000000E-01 -3.942320000000E-01  3.950300000000E-02
   5 T   8 O    -1.625800000000E-01  2.764970000000E-01  4.713900000000E-02
   6 T   8 O     4.934170000000E-01 -1.777180000000E-01  8.494900000000E-02
   7 T   8 O    -4.510090000000E-01  4.118210000000E-01 -3.095400000000E-02
   8 T   8 O     3.308670000000E-01 -4.888300000000E-01  4.450000000000E-03
   9 T   8 O     1.763720000000E-01  4.567610000000E-01 -4.490770000000E-01
  10 T   8 O     1.908700000000E-01 -3.398000000000E-02 -4.457430000000E-01
  11 T   8 O    -3.559450000000E-01  4.176090000000E-01 -4.272030000000E-01
  12 T   8 O    -2.781710000000E-01 -5.911000000000E-03 -4.212160000000E-01
  13 T   8 O    -1.882590000000E-01  4.836400000000E-01 -3.638400000000E-01
  14 T   8 O    -4.661670000000E-01 -4.145860000000E-01 -3.852560000000E-01
  15 T   8 O     3.376120000000E-01  2.673170000000E-01 -4.222780000000E-01
  16 T   8 O    -1.430600000000E-01  2.605720000000E-01 -4.144560000000E-01
  17 T   8 O     1.233200000000E-02  9.476400000000E-02 -4.006840000000E-01
  18 T   8 O     2.351030000000E-01 -3.212110000000E-01 -3.977980000000E-01
  19 T   8 O     8.327000000000E-03 -3.785710000000E-01 -4.141280000000E-01
  20 T   8 O     6.026800000000E-02 -1.921780000000E-01 -3.376140000000E-01
  21 T   8 O    -1.642050000000E-01 -2.104880000000E-01 -3.945110000000E-01
  22 T   8 O     3.739150000000E-01 -6.641800000000E-02 -3.744310000000E-01
  23 T   8 O     3.558400000000E-01  1.329010000000E-01 -3.177960000000E-01
  24 T   8 O     2.381500000000E-01 -1.892360000000E-01 -1.560750000000E-01
  25 T   8 O     2.401990000000E-01  3.567200000000E-01 -3.211350000000E-01
  26 T   8 O     1.274070000000E-01  1.919590000000E-01 -7.717300000000E-02
  27 T   8 O     1.654100000000E-01 -4.087470000000E-01 -2.902560000000E-01
  28 T   8 O     4.739790000000E-01  3.532020000000E-01 -3.373150000000E-01
  29 T   8 O     3.051820000000E-01  3.004000000000E-02 -1.187230000000E-01
  30 T   8 O    -3.104750000000E-01  1.704350000000E-01 -3.287510000000E-01
  31 T   8 O     1.547180000000E-01 -4.172190000000E-01 -6.922700000000E-02
  32 T   8 O    -2.212360000000E-01  1.750900000000E-02 -1.679530000000E-01
  33 T   8 O     3.549430000000E-01  3.727480000000E-01 -9.368700000000E-02
  34 T   8 O     2.347720000000E-01  4.894940000000E-01 -1.765580000000E-01
  35 T   8 O     4.498000000000E-02 -1.570420000000E-01 -2.198060000000E-01
  36 T   8 O    -7.508300000000E-02 -2.114280000000E-01  2.019000000000E-02
  37 T   8 O     1.581140000000E-01  1.568600000000E-02 -2.994170000000E-01
  38 T   8 O    -1.518780000000E-01 -4.803230000000E-01 -2.173110000000E-01
  39 T   8 O     4.376800000000E-01 -4.029240000000E-01 -1.517700000000E-01
  40 T   8 O    -1.797020000000E-01 -2.171370000000E-01 -1.987830000000E-01
  41 T   8 O     3.447460000000E-01 -1.093900000000E-02  2.757600000000E-02
  42 T   8 O     4.660730000000E-01 -1.662380000000E-01 -1.437940000000E-01
  43 T   8 O     4.858160000000E-01 -1.934400000000E-01 -3.111500000000E-02
  44 T   8 O    -1.239990000000E-01 -4.082000000000E-03 -5.099100000000E-02
  45 T   8 O    -3.194470000000E-01  1.322890000000E-01 -6.895300000000E-02
  46 T   8 O    -8.975900000000E-02 -3.442340000000E-01 -2.964260000000E-01
  47 T   8 O     3.637000000000E-02 -1.578030000000E-01 -8.945400000000E-02
  48 T   8 O     8.744300000000E-02 -2.894500000000E-02  1.387600000000E-02
  49 T   8 O     3.451900000000E-02  3.859240000000E-01 -1.391570000000E-01
  50 T   8 O     5.206400000000E-02  1.270120000000E-01 -1.912990000000E-01
  51 T   8 O    -1.126630000000E-01  2.155000000000E-01 -1.113140000000E-01
  52 T   8 O    -1.041170000000E-01 -3.612600000000E-02 -2.814790000000E-01
  53 T   8 O     3.700760000000E-01 -1.982100000000E-02 -2.323800000000E-01
  54 T   8 O     4.535430000000E-01  3.790010000000E-01 -2.059960000000E-01
  55 T   8 O    -3.783390000000E-01 -2.133760000000E-01 -2.892310000000E-01
  56 T   8 O     4.933000000000E-03  4.174090000000E-01 -3.034480000000E-01
  57 T   8 O    -3.095810000000E-01  3.383020000000E-01 -1.809210000000E-01
  58 T   8 O     2.797160000000E-01 -1.853020000000E-01 -2.925240000000E-01
  59 T   8 O    -3.935000000000E-01 -3.654570000000E-01 -8.105600000000E-02
  60 T   8 O    -2.250450000000E-01  4.759060000000E-01 -2.129900000000E-02
  61 T   8 O     3.212200000000E-02 -3.555660000000E-01 -1.673220000000E-01
  62 T   8 O    -3.598360000000E-01  4.561630000000E-01 -2.836690000000E-01
  63 T   8 O     2.750260000000E-01 -2.528190000000E-01  1.808900000000E-02
  64 T   8 O     3.882890000000E-01  2.844750000000E-01  3.259300000000E-02
  65 T  14 SI    1.678820000000E-01 -4.768320000000E-01  1.106070000000E-01
  66 T  14 SI    4.517860000000E-01  2.012220000000E-01  8.901500000000E-02
  67 T  14 SI    7.941100000000E-02  3.642320000000E-01  1.640050000000E-01
  68 T  14 SI    2.977250000000E-01  8.730400000000E-02  1.414020000000E-01
  69 T  14 SI    1.893470000000E-01  2.095970000000E-01  2.162280000000E-01
  70 T  14 SI    4.249390000000E-01  4.511250000000E-01  2.201710000000E-01
  71 T  14 SI    1.202800000000E-01  9.806000000000E-03  8.776200000000E-02
  72 T  14 SI   -4.980840000000E-01 -3.794110000000E-01  8.257800000000E-02
  73 T  14 SI    5.420600000000E-02 -1.562210000000E-01  1.554230000000E-01
  74 T  14 SI    3.326170000000E-01 -3.855340000000E-01  1.629280000000E-01
  75 T  14 SI    1.754180000000E-01 -2.874800000000E-01  2.206370000000E-01
  76 T  14 SI    4.127020000000E-01 -3.451200000000E-02  2.169880000000E-01
  77 T  14 SI   -3.605470000000E-01 -4.658350000000E-01 -2.736000000000E-02
  78 T  14 SI   -1.247000000000E-01  1.481490000000E-01  8.306100000000E-02
  79 T  14 SI   -4.440120000000E-01  3.382090000000E-01  1.553390000000E-01
  80 T  14 SI   -2.400500000000E-01  4.845600000000E-02  1.580370000000E-01
  81 T  14 SI   -3.280790000000E-01  2.066160000000E-01  2.191820000000E-01
  82 T  14 SI   -7.834300000000E-02  4.684340000000E-01  2.142710000000E-01
  83 T  14 SI   -3.418440000000E-01 -2.302200000000E-02  6.121500000000E-02
  84 T  14 SI   -4.135400000000E-02 -2.911900000000E-01  8.574900000000E-02
  85 T  14 SI    4.928120000000E-01 -2.098910000000E-01  1.661160000000E-01
  86 T  14 SI   -1.935900000000E-01 -4.150860000000E-01  1.413170000000E-01
  87 T  14 SI   -3.214170000000E-01 -2.940870000000E-01  2.084130000000E-01
  88 T  14 SI   -8.271500000000E-02 -4.716500000000E-02  2.175240000000E-01
  89 T  14 SI    5.273200000000E-02  8.383900000000E-02  2.755140000000E-01
  90 T  14 SI    3.024610000000E-01  3.282800000000E-01  2.864290000000E-01
  91 T  14 SI    5.135800000000E-02 -4.197030000000E-01  2.818380000000E-01
  92 T  14 SI    2.983500000000E-01 -1.616960000000E-01  2.847360000000E-01
  93 T  14 SI   -4.489170000000E-01  7.752100000000E-02  2.833280000000E-01
  94 T  14 SI   -1.970390000000E-01  3.339540000000E-01  2.796850000000E-01
  95 T  14 SI   -4.428820000000E-01 -4.177490000000E-01  2.761980000000E-01
  96 T  14 SI   -2.021710000000E-01 -1.751770000000E-01  2.818880000000E-01
  97 T  14 SI   -1.054280000000E-01  4.074980000000E-01  1.249200000000E-02
  98 T  14 SI    2.888460000000E-01 -3.624000000000E-01 -3.750800000000E-02
  99 T  14 SI    4.042120000000E-01  3.878770000000E-01 -2.212600000000E-02
 100 T  14 SI    3.911800000000E-01 -1.505750000000E-01  2.195000000000E-02
 101 T  14 SI    1.722480000000E-01  4.538810000000E-01  3.478560000000E-01
 102 T  14 SI    4.298220000000E-01  2.037810000000E-01  3.480470000000E-01
 103 T  14 SI    3.980500000000E-02  3.289590000000E-01  4.104260000000E-01
 104 T  14 SI    3.039530000000E-01  7.636300000000E-02  4.101430000000E-01
 105 T  14 SI    1.709010000000E-01  2.040770000000E-01  4.673250000000E-01
 106 T  14 SI    4.279990000000E-01  4.597740000000E-01  4.688870000000E-01
 107 T  14 SI    1.700720000000E-01 -4.009600000000E-02  3.458410000000E-01
 108 T  14 SI    4.347830000000E-01 -2.901410000000E-01  3.411550000000E-01
 109 T  14 SI    4.830900000000E-02 -1.729000000000E-01  4.081820000000E-01
 110 T  14 SI    3.080120000000E-01 -4.139530000000E-01  4.032390000000E-01
 111 T  14 SI    1.996740000000E-01 -2.744770000000E-01  4.652170000000E-01
 112 T  14 SI    4.614510000000E-01 -4.132000000000E-03  4.742280000000E-01
 113 T  14 SI   -3.246770000000E-01  4.622230000000E-01  3.432470000000E-01
 114 T  14 SI   -7.069100000000E-02  2.054130000000E-01  3.406920000000E-01
 115 T  14 SI   -4.418750000000E-01  3.313250000000E-01  4.079930000000E-01
 116 T  14 SI   -1.904830000000E-01  8.097500000000E-02  4.077180000000E-01
 117 T  14 SI   -2.897870000000E-01  2.355030000000E-01  4.670920000000E-01
 118 T  14 SI   -1.366170000000E-01  4.072670000000E-01  4.651280000000E-01
 119 T  14 SI   -3.217890000000E-01 -4.951000000000E-02  3.484270000000E-01
 120 T  14 SI   -7.595300000000E-02 -3.003450000000E-01  3.458720000000E-01
 121 T  14 SI   -4.524640000000E-01 -1.683180000000E-01  4.139760000000E-01
 122 T  14 SI   -2.062380000000E-01 -4.149410000000E-01  4.120350000000E-01
 123 T  14 SI   -3.226980000000E-01 -2.840790000000E-01  4.821370000000E-01
 124 T  14 SI   -7.008200000000E-02 -4.797300000000E-02  4.742420000000E-01
 125 T  14 SI    7.710700000000E-02  5.746900000000E-02 -4.668550000000E-01
 126 T  14 SI    2.757250000000E-01  3.524690000000E-01 -4.770550000000E-01
 127 T  14 SI    1.438360000000E-01 -3.924270000000E-01 -4.491090000000E-01
 128 T  14 SI    3.316120000000E-01 -8.106800000000E-02 -4.474910000000E-01
 129 T  14 SI   -3.616490000000E-01  1.180080000000E-01 -3.930370000000E-01
 130 T  14 SI   -1.938340000000E-01  3.994130000000E-01 -4.303400000000E-01
 131 T  14 SI   -4.339300000000E-01 -4.419190000000E-01 -4.629120000000E-01
 132 T  14 SI   -2.166140000000E-01 -1.279130000000E-01 -4.556300000000E-01
 133 T  14 SI    3.499890000000E-01  2.692840000000E-01 -3.474670000000E-01
 134 T  14 SI    1.983840000000E-01 -2.823610000000E-01 -3.278520000000E-01
 135 T  14 SI   -4.192090000000E-01  4.511470000000E-01 -3.533660000000E-01
 136 T  14 SI   -7.818200000000E-02  1.814630000000E-01 -3.545120000000E-01
 137 T  14 SI   -4.197560000000E-01 -2.024080000000E-01 -3.575950000000E-01
 138 T  14 SI   -5.436100000000E-02 -2.851500000000E-01 -3.643190000000E-01
 139 T  14 SI    2.662050000000E-01  1.310070000000E-01 -6.320100000000E-02
 140 T  14 SI    3.500880000000E-01 -8.298900000000E-02 -1.649730000000E-01
 141 T  14 SI   -2.191060000000E-01 -7.354300000000E-02 -2.303590000000E-01
 142 T  14 SI    4.127900000000E-02 -6.290900000000E-02 -2.801220000000E-01
 143 T  14 SI    1.155660000000E-01 -4.878020000000E-01 -1.335840000000E-01
 144 T  14 SI   -9.717500000000E-02 -3.331240000000E-01 -2.203090000000E-01
 145 T  14 SI    4.676770000000E-01 -2.922000000000E-01 -9.571300000000E-02
 146 T  14 SI   -1.932770000000E-01  8.600300000000E-02 -1.020310000000E-01
 147 T  14 SI    3.446700000000E-02  2.188780000000E-01 -1.356640000000E-01
 148 T  14 SI    9.566600000000E-02 -2.011890000000E-01 -1.531320000000E-01
 149 T  14 SI   -4.552450000000E-01  9.336400000000E-02 -4.281000000000E-02
 150 T  14 SI   -4.150770000000E-01  3.357710000000E-01 -2.360540000000E-01
 151 T  14 SI   -1.403740000000E-01  4.376750000000E-01 -2.926840000000E-01
 152 T  14 SI    3.092420000000E-01 -1.932800000000E-02 -3.032390000000E-01
 153 T  14 SI   -2.008900000000E-02 -9.980200000000E-02 -2.479900000000E-02
 154 T  14 SI    1.449640000000E-01  4.366210000000E-01 -2.800770000000E-01
 155 T  14 SI    3.774360000000E-01  4.615410000000E-01 -1.562820000000E-01
 156 T  14 SI   -2.044300000000E-01  4.165180000000E-01 -1.441160000000E-01

 T = ATOM BELONGING TO THE ASYMMETRIC UNIT

 ****   1 SYMMOPS - TRANSLATORS IN FRACTIONAL UNITS
  V INV                   ROTATION MATRICES                       TRANSLATOR
  1  1  1.00  0.00  0.00  0.00  1.00  0.00  0.00  0.00  1.00    0.00  0.00  0.00

 DIRECT LATTICE VECTORS CARTESIAN COMPONENTS (ANGSTROM)
          X                    Y                    Z
   0.110734000000E+02   0.678050193284E-15   0.000000000000E+00
   0.000000000000E+00   0.106389490000E+02   0.000000000000E+00
   0.132322351860E-14   0.132322351860E-14   0.216098800000E+02


 CARTESIAN COORDINATES - PRIMITIVE CELL
 *******************************************************************************
 *      ATOM          X(ANGSTROM)         Y(ANGSTROM)         Z(ANGSTROM)
 *******************************************************************************
   1     8 O     2.406582022000E-01  1.402032616067E+00  2.039562084280E+00
   2     8 O     7.734437698000E-01 -4.190171341548E+00  1.494971498400E+00
   3     8 O    -4.842309232800E+00  1.195732756008E+00  1.109429629320E+00
   4     8 O    -4.199077573600E+00 -4.194214142168E+00  8.536550896400E-01
   5     8 O    -1.800313372000E+00  2.941637481653E+00  1.018668133320E+00
   6     8 O     5.463803807800E+00 -1.890732738382E+00  1.835737696120E+00
   7     8 O    -4.994203060600E+00  4.381342616129E+00 -6.689122255200E-01
   8     8 O     3.663822637800E+00 -5.200637439670E+00  9.616396600000E-02
   9     8 O     1.953037704800E+00  4.859456984189E+00 -9.704500080760E+00
  10     8 O     2.113579858000E+00 -3.615114870200E-01 -9.632452740840E+00
  11     8 O    -3.941521363000E+00  4.442920852941E+00 -9.231805565640E+00
  12     8 O    -3.080298751400E+00 -6.288682753900E-02 -9.102427214080E+00
  13     8 O    -2.084667210600E+00  5.145421294360E+00 -7.862538739200E+00
  14     8 O    -5.162053657800E+00 -4.410759310114E+00 -8.325335929280E+00
  15     8 O     3.738512720800E+00  2.843971929833E+00 -9.125376906640E+00
  16     8 O    -1.584160604000E+00  2.772212218828E+00 -8.956344425280E+00
  17     8 O     1.365571688000E-01  1.008189363036E+00 -8.658733157920E+00
  18     8 O     2.603389560200E+00 -3.417347447239E+00 -8.596367044240E+00
  19     8 O     9.220820180000E-02 -4.027597561879E+00 -8.949256384640E+00
  20     8 O     6.673716712000E-01 -2.044571940922E+00 -7.295798026320E+00
  21     8 O    -1.818307647000E+00 -2.239371097112E+00 -8.525335368680E+00
  22     8 O     4.140510361000E+00 -7.066177146820E-01 -8.091408978280E+00
  23     8 O     3.940358656000E+00  1.413926961049E+00 -6.867533424480E+00
  24     8 O     2.637130210000E+00 -2.013272152964E+00 -3.372762021000E+00
  25     8 O     2.659819606600E+00  3.795125887280E+00 -6.939688813800E+00
  26     8 O     1.410828673800E+00  2.042242011091E+00 -1.667699269240E+00
  27     8 O     1.831651094000E+00 -4.348638486903E+00 -6.272397329280E+00
  28     8 O     5.248559058600E+00  3.757698064698E+00 -7.289336672200E+00
  29     8 O     3.379402358800E+00  3.195940279600E-01 -2.565589783240E+00
  30     8 O    -3.438013865000E+00  1.813249272815E+00 -7.104269659880E+00
  31     8 O     1.713254301200E+00 -4.438771662831E+00 -1.495987162760E+00
  32     8 O    -2.449834722400E+00  1.862773580410E-01 -3.629444175640E+00
  33     8 O     3.930425816200E+00  3.965646961852E+00 -2.024564827560E+00
  34     8 O     2.599724264800E+00  5.207701701806E+00 -3.815397193040E+00
  35     8 O     4.980815320000E-01 -1.670761828858E+00 -4.749981283280E+00
  36     8 O    -8.314240922000E-01 -2.249371709172E+00  4.363034772000E-01
  37     8 O     1.750859567600E+00  1.668825540140E-01 -6.470365439960E+00
  38     8 O    -1.681805845200E+00 -5.110131900527E+00 -4.696064632680E+00
  39     8 O     4.846605712000E+00 -4.286687886876E+00 -3.279731487600E+00
  40     8 O    -1.989912126800E+00 -2.310109469013E+00 -4.295676776040E+00
  41     8 O     3.817510356400E+00 -1.163794631110E-01  5.959140508800E-01
  42     8 O     5.161012758200E+00 -1.768597603862E+00 -3.107371084720E+00
  43     8 O     5.379634894400E+00 -2.057998294560E+00 -6.723914162000E-01
  44     8 O    -1.373090526600E+00 -4.342818981800E-02 -1.101909391080E+00
  45     8 O    -3.537364409800E+00  1.407415924261E+00 -1.490066055640E+00
  46     8 O    -9.939373106000E-01 -3.662287970066E+00 -6.405730288880E+00
  47     8 O     4.027395580000E-01 -1.678858069047E+00 -1.933090205520E+00
  48     8 O     9.682913162000E-01 -3.079443788050E-01  2.998586948800E-01
  49     8 O     3.822426946000E-01  4.105825753876E+00 -3.007166071160E+00
  50     8 O     5.765254976000E-01  1.351274190388E+00 -4.133948434120E+00
  51     8 O    -1.247562464200E+00  2.292693509500E+00 -2.405482182320E+00
  52     8 O    -1.152929187800E+00 -3.843426715740E-01 -6.082727412520E+00
  53     8 O     4.097999578400E+00 -2.108746081290E-01 -5.021703914400E+00
  54     8 O     5.022263056200E+00  4.032172309949E+00 -4.451548840480E+00
  55     8 O    -4.189499082600E+00 -2.270096381824E+00 -6.250247202280E+00
  56     8 O     5.462508220000E-02  4.440793063141E+00 -6.557474866240E+00
  57     8 O    -3.428114245400E+00  3.599177724598E+00 -3.909681099480E+00
  58     8 O     3.097407154400E+00 -1.971418527598E+00 -6.321408537120E+00
  59     8 O    -4.357382900000E+00 -3.888078384693E+00 -1.751610433280E+00
  60     8 O    -2.492013303000E+00  5.063139662794E+00 -4.602688341200E-01
  61     8 O     3.556997548000E-01 -3.782848540134E+00 -3.615808341360E+00
  62     8 O    -3.984607962400E+00  4.853094892687E+00 -6.130053049720E+00
  63     8 O     3.045472908400E+00 -2.689728447231E+00  3.909011193200E-01
  64     8 O     4.299679412600E+00  3.026515016775E+00  7.043308188400E-01
  65    14 SI    1.859024538800E+00 -5.072991329568E+00  2.390203997160E+00
  66    14 SI    5.002807092400E+00  2.140790595678E+00  1.923603468200E+00
  67    14 SI    8.793497674000E-01  3.875045672168E+00  3.544128369400E+00
  68    14 SI    3.296828015000E+00  9.288228034960E-01  3.055680251760E+00
  69    14 SI    2.096715069800E+00  2.229891793553E+00  4.672661132640E+00
  70    14 SI    4.705519522600E+00  4.799495867625E+00  4.757868889480E+00
  71    14 SI    1.331908552000E+00  1.043255338940E-01  1.896526288560E+00
  72    14 SI   -5.515483365600E+00 -4.036534279039E+00  1.784500670640E+00
  73    14 SI    6.002447204000E-01 -1.662027251729E+00  3.358672379240E+00
  74    14 SI    3.683201087800E+00 -4.101676563766E+00  3.520854528640E+00
  75    14 SI    1.942473681200E+00 -3.058485058520E+00  4.767939093560E+00
  76    14 SI    4.570014326800E+00 -3.671714078880E-01  4.689084641440E+00
  77    14 SI   -3.992481149800E+00 -4.955994807415E+00 -5.912463168000E-01
  78    14 SI   -1.380852980000E+00  1.576149655401E+00  1.794938242680E+00
  79    14 SI   -4.916722480800E+00  3.598188302341E+00  3.356857149320E+00
  80    14 SI   -2.658169670000E+00  5.155209127440E-01  3.415160605560E+00
  81    14 SI   -3.632949998600E+00  2.198177086584E+00  4.736496718160E+00
  82    14 SI   -8.675233762000E-01  4.983645435866E+00  4.630370597480E+00
  83    14 SI   -3.785375349600E+00 -2.449298838780E-01  1.322848804200E+00
  84    14 SI   -4.579293836000E-01 -3.097955559310E+00  1.853025600120E+00
  85    14 SI    5.457104400800E+00 -2.233019644559E+00  3.589746826080E+00
  86    14 SI   -2.143699506000E+00 -4.416078784614E+00  3.053843411960E+00
  87    14 SI   -3.559179007800E+00 -3.128776594563E+00  4.503779920440E+00
  88    14 SI   -9.159362810000E-01 -5.017860295850E-01  4.700667537120E+00
  89    14 SI    5.839225288000E-01  8.919588452110E-01  5.953824478320E+00
  90    14 SI    3.349271637400E+00  3.492554177720E+00  6.189696318520E+00
  91    14 SI    5.687076772000E-01 -4.465198812147E+00  6.090485359440E+00
  92    14 SI    3.303748890000E+00 -1.720275497504E+00  6.153110791680E+00
  93    14 SI   -4.971037507800E+00  8.247419654290E-01  6.122684080640E+00
  94    14 SI   -2.181891662600E+00  3.552919574346E+00  6.043959287800E+00
  95    14 SI   -4.904209538800E+00 -4.444410305801E+00  5.968605636240E+00
  96    14 SI   -2.238720351400E+00 -1.863699168973E+00  6.091565853440E+00
  97    14 SI   -1.167446415200E+00  4.335350439602E+00  2.699506209600E-01
  98    14 SI    3.198507296400E+00 -3.855555117600E+00 -8.105433790400E-01
  99    14 SI    4.476001160800E+00  4.126603621273E+00 -4.781402048800E-01
 100    14 SI    4.331692612000E+00 -1.601959745675E+00  4.743368660000E-01
 101    14 SI    1.907371003200E+00  4.828816811069E+00  7.517126417280E+00
 102    14 SI    4.759590934800E+00  2.168015666169E+00  7.521253904360E+00
 103    14 SI    4.407766870000E-01  3.499778024091E+00  8.869256608880E+00
 104    14 SI    3.365793150200E+00  8.124220624870E-01  8.863141012840E+00
 105    14 SI    1.892455133400E+00  2.171164795073E+00  1.009883717100E+01
 106    14 SI    4.739404126600E+00  4.891512137526E+00  1.013259180356E+01
 107    14 SI    1.883275284800E+00 -4.265792991040E-01  7.473582509080E+00
 108    14 SI    4.814526072200E+00 -3.086795301809E+00  7.372318611400E+00
 109    14 SI    5.349448806000E-01 -1.839474282100E+00  8.820764038160E+00
 110    14 SI    3.410740080800E+00 -4.404024855397E+00  8.713946401320E+00
 111    14 SI    2.211070071600E+00 -2.920146804673E+00  1.005328354396E+01
 112    14 SI    5.109831503400E+00 -4.396013726800E-02  1.024801017264E+01
 113    14 SI   -3.595278291800E+00  4.917566923627E+00  7.417526480360E+00
 114    14 SI   -7.827897194000E-01  2.185378430937E+00  7.362313236960E+00
 115    14 SI   -4.893058625000E+00  3.524949777425E+00  8.816679770840E+00
 116    14 SI   -2.109294452200E+00  8.614888952750E-01  8.810737053840E+00
 117    14 SI   -3.208927365800E+00  2.505504406347E+00  1.009380206896E+01
 118    14 SI   -1.512814687800E+00  4.332892842383E+00  1.005136026464E+01
 119    14 SI   -3.563298312600E+00 -5.267343649900E-01  7.529465658760E+00
 120    14 SI   -8.410579502000E-01 -3.195355137405E+00  7.474252415360E+00
 121    14 SI   -5.010314857600E+00 -1.790726617782E+00  8.945971682880E+00
 122    14 SI   -2.283755869200E+00 -4.414536137009E+00  8.904026905800E+00
 123    14 SI   -3.573364033200E+00 -3.022301992971E+00  1.041892271356E+01
 124    14 SI   -7.760460188000E-01 -5.103823003770E-01  1.024831271096E+01
 125    14 SI    8.538366538000E-01  6.114097600810E-01 -1.008868052740E+01
 126    14 SI    3.053213215000E+00  3.749899715081E+00 -1.030910130340E+01
 127    14 SI    1.592753562400E+00 -4.175010839223E+00 -9.705191596920E+00
 128    14 SI    3.672072320800E+00 -8.624783175320E-01 -9.670226811080E+00
 129    14 SI   -4.004684036600E+00  1.255481093592E+00 -8.493482405560E+00
 130    14 SI   -2.146401415600E+00  4.249334536937E+00 -9.299595759200E+00
 131    14 SI   -4.805080462000E+00 -4.701553703131E+00 -1.000347277056E+01
 132    14 SI   -2.398653467600E+00 -1.360859883437E+00 -9.846109624400E+00
 133    14 SI    3.875568192600E+00  2.864898742516E+00 -7.508720173960E+00
 134    14 SI    2.196785385600E+00 -3.004024278589E+00 -7.084842377760E+00
 135    14 SI   -4.642068940600E+00  4.799729924503E+00 -7.636196856080E+00
 136    14 SI   -8.657405588000E-01  1.930575602387E+00 -7.660961778560E+00
 137    14 SI   -4.648126090400E+00 -2.153408389192E+00 -7.727585038600E+00
 138    14 SI   -6.019610974000E-01 -3.033696307350E+00 -7.872889871720E+00
 139    14 SI    2.947794447000E+00  1.393776791643E+00 -1.365766025880E+00
 140    14 SI    3.876664459200E+00 -8.829157385610E-01 -3.565046733240E+00
 141    14 SI   -2.426248380400E+00 -7.824202263070E-01 -4.978030346920E+00
 142    14 SI    4.570988786000E-01 -6.692856426410E-01 -6.053402805360E+00
 143    14 SI    1.279708544400E+00 -5.189700600098E+00 -2.886734209920E+00
 144    14 SI   -1.076057645000E+00 -3.544089246676E+00 -4.760851052920E+00
 145    14 SI    5.178774491800E+00 -3.108700897800E+00 -2.068346444440E+00
 146    14 SI   -2.140233531800E+00  9.149815308470E-01 -2.204877666280E+00
 147    14 SI    3.816668778000E-01  2.328631879222E+00 -2.931682760320E+00
 148    14 SI    1.059347884400E+00 -2.140439510361E+00 -3.309164144160E+00
 149    14 SI   -5.041109983000E+00  9.932948344360E-01 -9.251189628000E-01
 150    14 SI   -4.596313651800E+00  3.572250544679E+00 -5.101098613520E+00
 151    14 SI   -1.554417451600E+00  4.656402003575E+00 -6.324866117920E+00
 152    14 SI    3.424360362800E+00 -2.056296062720E-01 -6.552958401320E+00
 153    14 SI   -2.224535326000E-01 -1.061788388098E+00 -5.359034141200E-01
 154    14 SI    1.605244357600E+00  4.645188551329E+00 -6.052430360760E+00
 155    14 SI    4.179499802400E+00  4.910311160409E+00 -3.377235266160E+00
 156    14 SI   -2.263735162000E+00  4.431313759582E+00 -3.114329466080E+00

 *******************************************************************************
 LOCAL ATOMIC FUNCTIONS BASIS SET
 *******************************************************************************
   ATOM  X(AU)  Y(AU)  Z(AU)    NO. TYPE  EXPONENT  S COEF   P COEF   D/F/G COEF
 *******************************************************************************
   1 O   0.455  2.649  3.854
                                  1 S  
                                         8.020E+03 1.080E-03 0.000E+00 0.000E+00
                                         1.338E+03 8.040E-03 0.000E+00 0.000E+00
                                         2.554E+02 5.324E-02 0.000E+00 0.000E+00
                                         6.922E+01 1.681E-01 0.000E+00 0.000E+00
                                         2.390E+01 3.581E-01 0.000E+00 0.000E+00
                                         9.264E+00 3.855E-01 0.000E+00 0.000E+00
                                         3.851E+00 1.468E-01 0.000E+00 0.000E+00
                                         1.212E+00 7.280E-02 0.000E+00 0.000E+00
                             2-   5 SP 
                                         4.943E+01-8.830E-03 9.580E-03 0.000E+00
                                         1.047E+01-9.150E-02 6.960E-02 0.000E+00
                                         3.235E+00-4.020E-02 2.065E-01 0.000E+00
                                         1.217E+00 3.790E-01 3.470E-01 0.000E+00
                             6-   9 SP 
                                         4.763E-01 1.000E+00 1.000E+00 0.000E+00
                            10-  13 SP 
                                         1.900E-01 1.000E+00 1.000E+00 0.000E+00
   2 O   1.462 -7.918  2.825
   3 O  -9.151  2.260  2.097
   4 O  -7.935 -7.926  1.613
   5 O  -3.402  5.559  1.925
   6 O  10.325 -3.573  3.469
   7 O  -9.438  8.280 -1.264
   8 O   6.924 -9.828  0.182
   9 O   3.691  9.183-18.339
  10 O   3.994 -0.683-18.203
  11 O  -7.448  8.396-17.446
  12 O  -5.821 -0.119-17.201
  13 O  -3.939  9.723-14.858
  14 O  -9.755 -8.335-15.733
  15 O   7.065  5.374-17.244
  16 O  -2.994  5.239-16.925
  17 O   0.258  1.905-16.363
  18 O   4.920 -6.458-16.245
  19 O   0.174 -7.611-16.912
  20 O   1.261 -3.864-13.787
  21 O  -3.436 -4.232-16.111
  22 O   7.824 -1.335-15.291
  23 O   7.446  2.672-12.978
  24 O   4.983 -3.805 -6.374
  25 O   5.026  7.172-13.114
  26 O   2.666  3.859 -3.151
  27 O   3.461 -8.218-11.853
  28 O   9.918  7.101-13.775
  29 O   6.386  0.604 -4.848
  30 O  -6.497  3.427-13.425
  31 O   3.238 -8.388 -2.827
  32 O  -4.630  0.352 -6.859
  33 O   7.427  7.494 -3.826
  34 O   4.913  9.841 -7.210
  35 O   0.941 -3.157 -8.976
  36 O  -1.571 -4.251  0.824
  37 O   3.309  0.315-12.227
  38 O  -3.178 -9.657 -8.874
  39 O   9.159 -8.101 -6.198
  40 O  -3.760 -4.365 -8.118
  41 O   7.214 -0.220  1.126
  42 O   9.753 -3.342 -5.872
  43 O  10.166 -3.889 -1.271
  44 O  -2.595 -0.082 -2.082
  45 O  -6.685  2.660 -2.816
  46 O  -1.878 -6.921-12.105
  47 O   0.761 -3.173 -3.653
  48 O   1.830 -0.582  0.567
  49 O   0.722  7.759 -5.683
  50 O   1.089  2.554 -7.812
  51 O  -2.358  4.333 -4.546
  52 O  -2.179 -0.726-11.495
  53 O   7.744 -0.398 -9.490
  54 O   9.491  7.620 -8.412
  55 O  -7.917 -4.290-11.811
  56 O   0.103  8.392-12.392
  57 O  -6.478  6.801 -7.388
  58 O   5.853 -3.725-11.946
  59 O  -8.234 -7.347 -3.310
  60 O  -4.709  9.568 -0.870
  61 O   0.672 -7.149 -6.833
  62 O  -7.530  9.171-11.584
  63 O   5.755 -5.083  0.739
  64 O   8.125  5.719  1.331
  65 SI  3.513 -9.587  4.517
                                833 S  
                                         8.765E+04 2.370E-04 0.000E+00 0.000E+00
                                         1.285E+04 1.920E-03 0.000E+00 0.000E+00
                                         2.786E+03 1.090E-02 0.000E+00 0.000E+00
                                         7.280E+02 4.960E-02 0.000E+00 0.000E+00
                                         2.195E+02 1.668E-01 0.000E+00 0.000E+00
                                         7.590E+01 3.630E-01 0.000E+00 0.000E+00
                                         2.946E+01 4.051E-01 0.000E+00 0.000E+00
                                         1.199E+01 1.504E-01 0.000E+00 0.000E+00
                           834- 837 SP 
                                         1.660E+02-8.840E-03 9.090E-03 0.000E+00
                                         3.937E+01-8.590E-02 6.010E-02 0.000E+00
                                         1.271E+01-7.120E-02 1.952E-01 0.000E+00
                                         4.718E+00 4.147E-01 3.384E-01 0.000E+00
                                         1.848E+00 6.168E-01 3.006E-01 0.000E+00
                                         7.365E-01 1.154E-01 6.480E-02 0.000E+00
                           838- 841 SP 
                                         4.175E+00-1.990E-02-8.700E-03 0.000E+00
                                         1.447E+00-1.864E-01-4.380E-03 0.000E+00
                                         5.023E-01 9.670E-02 2.207E-01 0.000E+00
                           842- 845 SP 
                                         3.220E-01 1.000E+00 1.000E+00 0.000E+00
                           846- 849 SP 
                                         1.300E-01 1.000E+00 1.000E+00 0.000E+00
                           850- 854 D  
                                         6.000E-01 0.000E+00 0.000E+00 1.000E+00
  66 SI  9.454  4.046  3.635
  67 SI  1.662  7.323  6.697
  68 SI  6.230  1.755  5.774
  69 SI  3.962  4.214  8.830
  70 SI  8.892  9.070  8.991
  71 SI  2.517  0.197  3.584
  72 SI-10.423 -7.628  3.372
  73 SI  1.134 -3.141  6.347
  74 SI  6.960 -7.751  6.653
  75 SI  3.671 -5.780  9.010
  76 SI  8.636 -0.694  8.861
  77 SI -7.545 -9.365 -1.117
  78 SI -2.609  2.978  3.392
  79 SI -9.291  6.800  6.344
  80 SI -5.023  0.974  6.454
  81 SI -6.865  4.154  8.951
  82 SI -1.639  9.418  8.750
  83 SI -7.153 -0.463  2.500
  84 SI -0.865 -5.854  3.502
  85 SI 10.312 -4.220  6.784
  86 SI -4.051 -8.345  5.771
  87 SI -6.726 -5.913  8.511
  88 SI -1.731 -0.948  8.883
  89 SI  1.103  1.686 11.251
  90 SI  6.329  6.600 11.697
  91 SI  1.075 -8.438 11.509
  92 SI  6.243 -3.251 11.628
  93 SI -9.394  1.559 11.570
  94 SI -4.123  6.714 11.421
  95 SI -9.268 -8.399 11.279
  96 SI -4.231 -3.522 11.511
  97 SI -2.206  8.193  0.510
  98 SI  6.044 -7.286 -1.532
  99 SI  8.458  7.798 -0.904
 100 SI  8.186 -3.027  0.896
 101 SI  3.604  9.125 14.205
 102 SI  8.994  4.097 14.213
 103 SI  0.833  6.614 16.760
 104 SI  6.360  1.535 16.749
 105 SI  3.576  4.103 19.084
 106 SI  8.956  9.244 19.148
 107 SI  3.559 -0.806 14.123
 108 SI  9.098 -5.833 13.932
 109 SI  1.011 -3.476 16.669
 110 SI  6.445 -8.322 16.467
 111 SI  4.178 -5.518 18.998
 112 SI  9.656 -0.083 19.366
 113 SI -6.794  9.293 14.017
 114 SI -1.479  4.130 13.913
 115 SI -9.247  6.661 16.661
 116 SI -3.986  1.628 16.650
 117 SI -6.064  4.735 19.075
 118 SI -2.859  8.188 18.994
 119 SI -6.734 -0.995 14.229
 120 SI -1.589 -6.038 14.124
 121 SI -9.468 -3.384 16.905
 122 SI -4.316 -8.342 16.826
 123 SI -6.753 -5.711 19.689
 124 SI -1.467 -0.964 19.367
 125 SI  1.614  1.155-19.065
 126 SI  5.770  7.086-19.481
 127 SI  3.010 -7.890-18.340
 128 SI  6.939 -1.630-18.274
 129 SI -7.568  2.373-16.050
 130 SI -4.056  8.030-17.574
 131 SI -9.080 -8.885-18.904
 132 SI -4.533 -2.572-18.606
 133 SI  7.324  5.414-14.189
 134 SI  4.151 -5.677-13.388
 135 SI -8.772  9.070-14.430
 136 SI -1.636  3.648-14.477
 137 SI -8.784 -4.069-14.603
 138 SI -1.138 -5.733-14.878
 139 SI  5.571  2.634 -2.581
 140 SI  7.326 -1.668 -6.737
 141 SI -4.585 -1.479 -9.407
 142 SI  0.864 -1.265-11.439
 143 SI  2.418 -9.807 -5.455
 144 SI -2.033 -6.697 -8.997
 145 SI  9.786 -5.875 -3.909
 146 SI -4.044  1.729 -4.167
 147 SI  0.721  4.400 -5.540
 148 SI  2.002 -4.045 -6.253
 149 SI -9.526  1.877 -1.748
 150 SI -8.686  6.751 -9.640
 151 SI -2.937  8.799-11.952
 152 SI  6.471 -0.389-12.383
 153 SI -0.420 -2.006 -1.013
 154 SI  3.033  8.778-11.437
 155 SI  7.898  9.279 -6.382
 156 SI -4.278  8.374 -5.885
 INFORMATION **** TOLINTEG **** COULOMB AND EXCHANGE SERIES TOLERANCES MODIFIED
 INFORMATION **** READM2 **** FULL DIRECT SCF (MONO AND BIEL INT) SELECTED
 INFORMATION **** SMEAR **** FERMI SMEARING ACTIVE
 FERMI SMEARING - TEMPERATURE SMEARING OF FERMI SURFACE  0.1000E-12
 INFORMATION **** MAXCYCLE **** MAX NUMBER OF SCF CYCLES SET TO         250

 MODIFIED BROYDEN MIXING OF THE FOCK MATRIX
 WO PARAMETER(D.D. Johnson, PRB38, 12807,(1988)             1.0000E-04
 % OF FOCK/KS MATRICES MIXING WHEN BROYDEN METHOD IS ON            100
 NUMBER OF SCF ITERATIONS AFTER WHICH BROYDEN METHOD IS ACTIVE      40
 INFORMATION **** TOLDEE **** SCF TOL ON TOTAL ENERGY SET TO           7
 *******************************************************************************
 N. OF ATOMS PER CELL      156  COULOMB OVERLAP TOL         (T1) 10** -8
 NUMBER OF SHELLS          808  COULOMB PENETRATION TOL     (T2) 10** -8
 NUMBER OF AO             2856  EXCHANGE OVERLAP TOL        (T3) 10** -8
 N. OF ELECTRONS PER CELL 1800  EXCHANGE PSEUDO OVP (F(G))  (T4) 10** -8
 CORE ELECTRONS PER CELL  1048  EXCHANGE PSEUDO OVP (P(G))  (T5) 10**-16
 N. OF SYMMETRY OPERATORS    1  POLE ORDER IN MONO ZONE                4
 *******************************************************************************
 TYPE OF CALCULATION :  UNRESTRICTED OPEN SHELL
 KOHN-SHAM HAMILTONIAN

 (EXCHANGE)[CORRELATION] FUNCTIONAL:(BECKE)[LEE-YANG-PARR]

 NON-LOCAL WEIGHTING FACTOR (EXCHANGE) =           0.9000
 NON-LOCAL WEIGHTING FACTOR [CORRELATION] =        0.8100

 HYBRID EXCHANGE - PERCENTAGE OF FOCK EXCHANGE     5.0000

 SPIN POLARIZED DFT SELECTED

 CAPPA:IS1  2;IS2  2;IS3  2; K PTS MONK NET    8; SYMMOPS: K SPACE  2;G SPACE  1

 *******************************************************************************
 MAX NUMBER OF SCF CYCLES     250  CONVERGENCE ON DELTAP        10**-17
 WEIGHT OF F(I) IN F(I+1)      95% CONVERGENCE ON ENERGY        10**- 7
 SHRINK. FACT.(MONKH.)    2  2  2  NUMBER OF K POINTS IN THE IBZ      8
 SHRINKING FACTOR(GILAT NET)    2  NUMBER OF K POINTS(GILAT NET)      8
 *******************************************************************************
 *** K POINTS COORDINATES (OBLIQUE COORDINATES IN UNITS OF IS =  2)
   1-R(  0  0  0)   2-R(  1  0  0)   3-R(  0  1  0)   4-R(  1  1  0)
   5-R(  0  0  1)   6-R(  1  0  1)   7-R(  0  1  1)   8-R(  1  1  1)

 DIRECT LATTICE VECTORS COMPON. (A.U.)     RECIP. LATTICE VECTORS COMPON. (A.U.) 
        X            Y            Z              X            Y            Z
   20.9256934    0.0000000    0.0000000      0.3002617    0.0000000    0.0000000
    0.0000000   20.1047000    0.0000000      0.0000000    0.3125232    0.0000000
    0.0000000    0.0000000   40.8367550      0.0000000    0.0000000    0.1538610

 DISK SPACE FOR EIGENVECTORS (FTN 10)   65253888 REALS

 SYMMETRY ADAPTION OF THE BLOCH FUNCTIONS DISABLED
 TTTTTTTTTTTTTTTTTTTTTTTTTTTTTT gordsh1     TELAPSE        3.41 TCPU        0.53

 DIMENSIONS  P(G)= 6599730 F(G)= 1177824 P(G),F(G) (IRR) 3308517
 MAX G-VECTOR INDEX FOR 1- AND 2-ELECTRON INTEGRALS  55

 TTTTTTTTTTTTTTTTTTTTTTTTTTTTTT INPUT       TELAPSE        4.18 TCPU        1.28

 NEIGHBORS OF THE NON-EQUIVALENT ATOMS

 N = NUMBER OF NEIGHBORS AT DISTANCE R
    ATOM  N     R/ANG      R/AU   NEIGHBORS (ATOM LABELS AND CELL INDICES)
   1 O    1     1.6491     3.1163  78 SI   0 0 0
   1 O    1     1.7016     3.2155  71 SI   0 0 0
   1 O    1     2.5456     4.8105  48 O    0 0 0
   1 O    1     2.7528     5.2021   5 O    0 0 0
   1 O    1     2.9644     5.6018  67 SI   0 0 0
   1 O    1     3.2552     6.1515  68 SI   0 0 0

   2 O    1     1.6611     3.1390  65 SI   0 0 0
   2 O    1     1.6845     3.1832  84 SI   0 0 0
   2 O    1     2.7319     5.1625  36 O    0 0 0
   2 O    1     2.9381     5.5522  63 O    0 0 0
   2 O    1     3.1200     5.8959  97 SI   0-1 0
   2 O    1     3.1450     5.9431  31 O    0 0 0

   3 O    1     1.7506     3.3082  66 SI  -1 0 0
   3 O    1     1.7995     3.4005  83 SI   0 0 0
   3 O    1     2.0542     3.8819 149 SI   0 0 0
   3 O    1     2.6919     5.0869  64 O   -1 0 0
   3 O    1     2.7948     5.2813  41 O   -1 0 0
   3 O    1     2.9163     5.5111  45 O    0 0 0

   4 O    1     1.6200     3.0613  72 SI   0 0 0
   4 O    1     1.6464     3.1113  77 SI   0 0 0
   4 O    1     2.5592     4.8361  60 O    0-1 0
   4 O    1     2.6280     4.9661  59 O    0 0 0
   4 O    1     2.6848     5.0735   7 O    0-1 0
   4 O    1     2.8740     5.4311   6 O   -1 0 0

   5 O    1     1.6258     3.0722  78 SI   0 0 0
   5 O    1     1.7040     3.2200  97 SI   0 0 0
   5 O    1     2.6770     5.0588  60 O    0 0 0
   5 O    1     2.7528     5.2021   1 O    0 0 0
   5 O    1     3.4154     6.4542  45 O    0 0 0
   5 O    1     3.5086     6.6303   3 O    0 0 0

   6 O    1     1.7871     3.3771  85 SI   0 0 0
   6 O    1     1.7940     3.3902 100 SI   0 0 0
   6 O    1     2.1485     4.0600  72 SI   1 0 0
   6 O    1     2.5099     4.7430  83 SI   1 0 0
   6 O    1     2.5151     4.7529  43 O    0 0 0
   6 O    1     2.7195     5.1391  41 O    0 0 0

   7 O    1     1.6345     3.0887  99 SI  -1 0 0
   7 O    1     1.6443     3.1072  77 SI   0 1 0
   7 O    1     2.5745     4.8650  33 O   -1 0 0
   7 O    1     2.6018     4.9167  60 O    0 0 0
   7 O    1     2.6245     4.9596  64 O   -1 0 0
   7 O    1     2.6819     5.0680  59 O    0 1 0

   8 O    1     1.6462     3.1109  99 SI   0-1 0
   8 O    1     1.6876     3.1890  98 SI   0 0 0
   8 O    1     2.5673     4.8515  64 O    0-1 0
   8 O    1     2.5956     4.9050  33 O    0-1 0
   8 O    1     2.6027     4.9183  63 O    0 0 0
   8 O    1     2.6306     4.9711  31 O    0 0 0

   9 O    1     1.6444     3.1075 127 SI   0 1 0
   9 O    1     1.6754     3.1661 126 SI   0 0 0
   9 O    1     2.6650     5.0361  19 O    0 1 0
   9 O    1     2.6890     5.0814  18 O    0 1 0
   9 O    1     2.7542     5.2046  15 O    0 0 0
   9 O    1     3.0457     5.7556  25 O    0 0 0

  10 O    1     1.6375     3.0944 128 SI   0 0 0
  10 O    1     1.6558     3.1290 125 SI   0 0 0
  10 O    1     2.5695     4.8557  22 O    0 0 0
  10 O    1     2.5948     4.9034  17 O    0 0 0
  10 O    1     3.1611     5.9736 105 SI   0 0-1
  10 O    1     3.2029     6.0526 111 SI   0 0-1

  11 O    1     1.7788     3.3614 135 SI   0 0 0
  11 O    1     1.8068     3.4144 130 SI   0 0 0
  11 O    1     1.8907     3.5729 131 SI   0 1 0
  11 O    1     2.3449     4.4312  14 O    0 1 0
  11 O    1     2.4117     4.5575  13 O    0 0 0
  11 O    1     2.7910     5.2742  28 O   -1 0 0

  12 O    1     1.6439     3.1065 132 SI   0 0 0
  12 O    1     1.7215     3.2531 129 SI   0 0 0
  12 O    1     2.5812     4.8778  21 O    0 0 0
  12 O    1     2.7641     5.2235  30 O    0 0 0
  12 O    1     2.9527     5.5798 137 SI   0 0 0
  12 O    1     3.2090     6.0641  16 O    0 0 0

  13 O    1     1.6947     3.2025 130 SI   0 0 0
  13 O    1     1.6985     3.2096 151 SI   0 0 0
  13 O    1     2.4117     4.5575  11 O    0 0 0
  13 O    1     2.5817     4.8788  46 O    0 1 0
  13 O    1     2.5878     4.8902  62 O    0 0 0
  13 O    1     2.5906     4.8955 135 SI   0 0 0

  14 O    1     1.6691     3.1541 135 SI   0-1 0
  14 O    1     1.7402     3.2884 131 SI   0 0 0
  14 O    1     2.3449     4.4312  11 O    0-1 0
  14 O    1     2.3910     4.5184 137 SI   0 0 0
  14 O    1     2.7597     5.2151  28 O   -1-1 0
  14 O    1     2.8454     5.3771  62 O    0-1 0

  15 O    1     1.6226     3.0663 133 SI   0 0 0
  15 O    1     1.6406     3.1003 126 SI   0 0 0
  15 O    1     2.5468     4.8128  28 O    0 0 0
  15 O    1     2.6164     4.9443  25 O    0 0 0
  15 O    1     2.6802     5.0649  23 O    0 0 0
  15 O    1     2.7542     5.2046   9 O    0 0 0

  16 O    1     1.6174     3.0564 130 SI   0 0 0
  16 O    1     1.7037     3.2195 136 SI   0 0 0
  16 O    1     2.4822     4.6906  17 O    0 0 0
  16 O    1     2.6606     5.0279  13 O    0 0 0
  16 O    1     2.7904     5.2732  30 O    0 0 0
  16 O    1     2.8937     5.4683 129 SI   0 0 0

  17 O    1     1.6482     3.1147 125 SI   0 0 0
  17 O    1     1.6885     3.1908 136 SI   0 0 0
  17 O    1     2.4822     4.6906  16 O    0 0 0
  17 O    1     2.5948     4.9034  10 O    0 0 0
  17 O    1     2.8465     5.3792  37 O    0 0 0
  17 O    1     3.1152     5.8869 142 SI   0 0 0

  18 O    1     1.6189     3.0593 134 SI   0 0 0
  18 O    1     1.6808     3.1762 127 SI   0 0 0
  18 O    1     2.6082     4.9289  19 O    0 0 0
  18 O    1     2.6199     4.9508  27 O    0 0 0
  18 O    1     2.6890     5.0814   9 O    0-1 0
  18 O    1     2.7063     5.1142  20 O    0 0 0

  19 O    1     1.6212     3.0636 138 SI   0 0 0
  19 O    1     1.6867     3.1873 127 SI   0 0 0
  19 O    1     2.6082     4.9289  18 O    0 0 0
  19 O    1     2.6452     4.9987  20 O    0 0 0
  19 O    1     2.6509     5.0096  21 O    0 0 0
  19 O    1     2.6650     5.0361   9 O    0-1 0

  20 O    1     1.7096     3.2306 138 SI   0 0 0
  20 O    1     1.8177     3.4350 134 SI   0 0 0
  20 O    1     1.8653     3.5248 142 SI   0 0 0
  20 O    1     2.4838     4.6937  46 O    0 0 0
  20 O    1     2.5787     4.8730  35 O    0 0 0
  20 O    1     2.5973     4.9081  37 O    0 0 0

  21 O    1     1.5925     3.0094 138 SI   0 0 0
  21 O    1     1.6891     3.1919 132 SI   0 0 0
  21 O    1     2.5812     4.8778  12 O    0 0 0
  21 O    1     2.6509     5.0096  19 O    0 0 0
  21 O    1     2.6827     5.0696  46 O    0 0 0
  21 O    1     2.7800     5.2534  20 O    0 0 0

  22 O    1     1.6542     3.1260 128 SI   0 0 0
  22 O    1     1.7694     3.3436 152 SI   0 0 0
  22 O    1     2.4126     4.5592  58 O    0 0 0
  22 O    1     2.4566     4.6422  23 O    0 0 0
  22 O    1     2.5695     4.8557  10 O    0 0 0
  22 O    1     2.7287     5.1565 137 SI   1 0 0

  23 O    1     1.5877     3.0002 133 SI   0 0 0
  23 O    1     1.7286     3.2666 152 SI   0 0 0
  23 O    1     2.4566     4.6422  22 O    0 0 0
  23 O    1     2.4641     4.6565  53 O    0 0 0
  23 O    1     2.5508     4.8204  37 O    0 0 0
  23 O    1     2.6802     5.0649  15 O    0 0 0

  24 O    1     1.5842     2.9937 148 SI   0 0 0
  24 O    1     1.6885     3.1909 140 SI   0 0 0
  24 O    1     2.5496     4.8180  42 O    0 0 0
  24 O    1     2.5670     4.8510  35 O    0 0 0
  24 O    1     2.5777     4.8712  29 O    0 0 0
  24 O    1     2.6790     5.0626  47 O    0 0 0

  25 O    1     1.6192     3.0599 154 SI   0 0 0
  25 O    1     1.6331     3.0862 133 SI   0 0 0
  25 O    1     2.6125     4.9369  28 O    0 0 0
  25 O    1     2.6164     4.9443  15 O    0 0 0
  25 O    1     2.7046     5.1110  23 O    0 0 0
  25 O    1     2.7111     5.1232  56 O    0 0 0

  26 O    1     1.6549     3.1274 147 SI   0 0 0
  26 O    1     1.6953     3.2036 139 SI   0 0 0
  26 O    1     2.6666     5.0391  49 O    0 0 0
  26 O    1     2.6937     5.0903  50 O    0 0 0
  26 O    1     2.7657     5.2264  29 O    0 0 0
  26 O    1     2.7702     5.2349  51 O    0 0 0

  27 O    1     1.6129     3.0479 134 SI   0 0 0
  27 O    1     1.6751     3.1655 154 SI   0-1 0
  27 O    1     2.5807     4.8767  56 O    0-1 0
  27 O    1     2.6199     4.9508  18 O    0 0 0
  27 O    1     2.6936     5.0902  58 O    0 0 0
  27 O    1     2.7124     5.1257  25 O    0-1 0

  28 O    1     1.6140     3.0501 135 SI   1 0 0
  28 O    1     1.6524     3.1225 133 SI   0 0 0
  28 O    1     2.4352     4.6019  62 O    1 0 0
  28 O    1     2.5164     4.7552 150 SI   1 0 0
  28 O    1     2.5468     4.8128  15 O    0 0 0
  28 O    1     2.6125     4.9369  25 O    0 0 0

  29 O    1     1.6408     3.1007 140 SI   0 0 0
  29 O    1     1.6673     3.1507 139 SI   0 0 0
  29 O    1     2.5777     4.8712  24 O    0 0 0
  29 O    1     2.6135     4.9388  53 O    0 0 0
  29 O    1     2.7657     5.2264  26 O    0 0 0
  29 O    1     2.7979     5.2873  42 O    0 0 0

  30 O    1     1.6007     3.0248 129 SI   0 0 0
  30 O    1     2.6344     4.9784 136 SI   0 0 0
  30 O    1     2.7641     5.2235  12 O    0 0 0
  30 O    1     2.7904     5.2732  16 O    0 0 0
  30 O    1     2.9066     5.4927 150 SI   0 0 0
  30 O    1     3.0842     5.8282  28 O   -1 0 0

  31 O    1     1.6389     3.0971 143 SI   0 0 0
  31 O    1     1.7366     3.2818  98 SI   0 0 0
  31 O    1     2.6013     4.9158  61 O    0 0 0
  31 O    1     2.6306     4.9711   8 O    0 0 0
  31 O    1     2.6740     5.0532  34 O    0-1 0
  31 O    1     2.8973     5.4751  63 O    0 0 0

  32 O    1     1.6298     3.0799 146 SI   0 0 0
  32 O    1     1.6606     3.1381 141 SI   0 0 0
  32 O    1     2.6244     4.9593  40 O    0 0 0
  32 O    1     2.6927     5.0885  45 O    0 0 0
  32 O    1     2.7167     5.1338  51 O    0 0 0
  32 O    1     2.7569     5.2098  44 O    0 0 0

  33 O    1     1.6477     3.1137  99 SI   0 0 0
  33 O    1     1.6686     3.1532 155 SI   0 0 0
  33 O    1     2.5535     4.8255  34 O    0 0 0
  33 O    1     2.5745     4.8650   7 O    1 0 0
  33 O    1     2.5956     4.9050   8 O    0 1 0
  33 O    1     2.6621     5.0306  54 O    0 0 0

  34 O    1     1.6319     3.0839 143 SI   0 1 0
  34 O    1     1.6662     3.1486 155 SI   0 0 0
  34 O    1     2.5119     4.7468 154 SI   0 0 0
  34 O    1     2.5535     4.8255  33 O    0 0 0
  34 O    1     2.5779     4.8715  39 O    0 1 0
  34 O    1     2.6047     4.9222  49 O    0 0 0

  35 O    1     1.6160     3.0539 148 SI   0 0 0
  35 O    1     1.6442     3.1072 142 SI   0 0 0
  35 O    1     2.4016     4.5383  61 O    0 0 0
  35 O    1     2.4469     4.6240 144 SI   0 0 0
  35 O    1     2.4813     4.6890  52 O    0 0 0
  35 O    1     2.5670     4.8510  24 O    0 0 0

  36 O    1     1.6512     3.1203 153 SI   0 0 0
  36 O    1     1.6931     3.1996  84 SI   0 0 0
  36 O    1     2.6508     5.0093  48 O    0 0 0
  36 O    1     2.7318     5.1623  47 O    0 0 0
  36 O    1     2.7319     5.1625   2 O    0 0 0
  36 O    1     2.7433     5.1841  44 O    0 0 0

  37 O    1     1.5959     3.0158 142 SI   0 0 0
  37 O    1     1.7164     3.2436 152 SI   0 0 0
  37 O    1     2.5313     4.7835  58 O    0 0 0
  37 O    1     2.5508     4.8204  23 O    0 0 0
  37 O    1     2.5973     4.9081  20 O    0 0 0
  37 O    1     2.7840     5.2609  53 O    0 0 0

  38 O    1     1.6804     3.1754 144 SI   0 0 0
  38 O    1     1.8521     3.5000 151 SI   0-1 0
  38 O    1     2.0112     3.8007 156 SI   0-1 0
  38 O    1     2.3436     4.4287  46 O    0 0 0
  38 O    1     2.6608     5.0283  61 O    0 0 0
  38 O    1     2.7187     5.1377  57 O    0-1 0

  39 O    1     1.5918     3.0080 155 SI   0-1 0
  39 O    1     1.7220     3.2542 145 SI   0 0 0
  39 O    1     2.4472     4.6245  59 O    1 0 0
  39 O    1     2.5435     4.8065  42 O    0 0 0
  39 O    1     2.5779     4.8715  34 O    0-1 0
  39 O    1     2.6052     4.9230  54 O    0-1 0

  40 O    1     1.6044     3.0319 144 SI   0 0 0
  40 O    1     1.7291     3.2675 141 SI   0 0 0
  40 O    1     2.6087     4.9297  35 O    0 0 0
  40 O    1     2.6244     4.9593  32 O    0 0 0
  40 O    1     2.6968     5.0962  46 O    0 0 0
  40 O    1     2.7573     5.2105  52 O    0 0 0

  41 O    1     1.5767     2.9796 100 SI   0 0 0
  41 O    1     2.6240     4.9586 139 SI   0 0 0
  41 O    1     2.6945     5.0918  63 O    0 0 0
  41 O    1     2.7195     5.1391   6 O    0 0 0
  41 O    1     2.7229     5.1455  68 SI   0 0 0
  41 O    1     2.7948     5.2813   3 O    1 0 0

  42 O    1     1.6259     3.0724 140 SI   0 0 0
  42 O    1     1.6958     3.2046 145 SI   0 0 0
  42 O    1     2.4618     4.6522  43 O    0 0 0
  42 O    1     2.5435     4.8065  39 O    0 0 0
  42 O    1     2.5496     4.8180  24 O    0 0 0
  42 O    1     2.6872     5.0781  53 O    0 0 0

  43 O    1     1.6190     3.0595 100 SI   0 0 0
  43 O    1     1.7587     3.3235 145 SI   0 0 0
  43 O    1     2.4618     4.6522  42 O    0 0 0
  43 O    1     2.5099     4.7431  59 O    1 0 0
  43 O    1     2.5151     4.7529   6 O    0 0 0
  43 O    1     2.6416     4.9919  63 O    0 0 0

  44 O    1     1.6375     3.0944 153 SI   0 0 0
  44 O    1     1.6503     3.1187 146 SI   0 0 0
  44 O    1     2.5532     4.8249  47 O    0 0 0
  44 O    1     2.6343     4.9782  45 O    0 0 0
  44 O    1     2.6782     5.0610  51 O    0 0 0
  44 O    1     2.7417     5.1811  48 O    0 0 0

  45 O    1     1.6448     3.1083 146 SI   0 0 0
  45 O    1     1.6589     3.1348 149 SI   0 0 0
  45 O    1     2.6201     4.9513  51 O    0 0 0
  45 O    1     2.6343     4.9782  44 O    0 0 0
[...]
   8.5072657   8.8457481   8.5594600   8.5901417   8.6472350   8.5638973
   8.5975523   8.6787761   8.6561030   8.7763438   8.6288801   8.6592821
   8.7170816   8.6244702   8.7458405   8.6655673   8.5697191   8.6526048
   8.6141385   8.6460174   8.7216265   8.6523124   8.5496761   8.7100284
   8.8509220   8.7008201   8.5425938   8.6081368  13.4819911  13.2577351
  13.9944492  13.9523612  14.0416898  14.0038691  13.2358702  13.4324264
  14.1103286  14.0392583  14.0340069  14.0202184  12.8834983  13.2909644
  14.0095405  14.1341694  14.0257532  14.0585016  13.4530713  13.3435689
  13.8352964  13.9796342  14.0337139  13.9843300  13.9947662  13.9985571
  13.9745808  14.0228563  13.9811286  13.9669865  14.0202097  14.0008518
  13.2074368  13.3036926  12.9196948  13.0267666  14.0018015  14.0025479
  13.9848283  14.0445634  14.1165648  14.0800517  13.9870477  13.9902329
  14.0292455  14.0348625  14.0438645  13.9757910  14.0028440  14.0124347
  14.0136473  14.0182046  13.9266766  14.0083545  14.0006132  13.9963876
  14.0224587  14.0298116  14.0791265  14.0987364  13.2295686  13.3226500
  13.1714514  13.1747540  13.2886371  13.1164185  13.3732992  13.3065703
  12.6395832  12.9135724  12.6153790  13.0628273  13.3384909  12.6501363
  13.1120853  12.7127894  12.7879048  12.6575600  12.7008029  12.5394113
  13.0354810  12.6152380  12.9553260  12.6402971  13.2197172  12.8253912
  12.9123846  12.6706394  12.6732807  12.9085127  12.8391770  13.0177391
 SUMMED SPIN DENSITY          -3.50000000
 TOTAL ATOMIC SPINS  :
  -0.0054362  -0.0006911  -0.0016179  -0.0002066  -0.0006765   0.0011421
  -0.0000834   0.0003474   0.0002137   0.0030605  -0.0011031   0.0107623
  -0.0213067   0.0015247  -0.0028005  -0.0011775   0.0059772   0.0003996
  -0.0013191  -0.0013113  -0.0000405   0.0025736   0.0003739  -0.0001734
  -0.0044401  -0.0005086   0.0197225  -0.0045425  -0.0003624   0.0276209
  -0.0027384   0.0026773  -0.0011341  -0.0260615  -0.0001089  -0.0006649
   0.0002406  -0.0058504  -0.0032947  -0.0038681   0.0002440  -0.0003277
  -0.0001518  -0.0053675  -0.0008245  -0.0006434  -0.0003960  -0.0003029
  -0.0077989  -0.0065924  -0.0027071   0.0023065  -0.0005932   0.0118153
  -0.0480211  -0.0109979  -0.0186383  -0.0009203  -0.0001165  -0.0015873
  -0.0005989  -0.0370742  -0.0004781  -0.0001955  -0.0087987  -0.0017107
  -0.0046125   0.0008123   0.0093410  -0.0027212  -0.0078151  -0.0031266
  -0.0085629   0.0010343   0.0019654   0.0018703  -0.0000429  -0.4050987
   0.0208258  -0.0498701  -0.0257547  -0.0013673  -0.1729684  -0.0050471
   0.0025668  -0.1015327   0.0092597   0.0004232   0.0133492   0.0024323
  -0.0125775  -0.0009042  -0.0093652  -0.0032431   0.0199274  -0.0068611
  -0.0242778  -0.0021974  -0.0001277  -0.0008702   0.0142191  -0.0125374
   0.0108233  -0.0028476  -0.0024561   0.0011204   0.0107378   0.0103608
  -0.0052952  -0.0041420   0.1499845   0.1798405   0.0241713   0.0249491
   0.0141827   0.0088558   0.3897551   0.0152308  -0.0044520   0.0172720
   0.0102017   0.0072346   0.0004860   0.0079495  -0.0059254   0.0015265
   0.0110231  -0.0220255   0.2668193   0.0061878  -0.0016300  -0.0010512
  -0.0046170  -0.0130291  -0.0084345  -0.0882703  -0.0284510   0.0001008
  -0.0008528  -0.0001893  -0.8191401  -0.0349386  -0.0084526  -0.0434993
  -0.0011069  -0.0239607   0.0000981  -0.0042856   0.0001862  -0.8671696
  -0.7795688  -0.0021821  -0.0085530  -0.8976341  -0.0283284  -0.0377947
 TTTTTTTTTTTTTTTTTTTTTTTTTTTTTT MOQGAD      TELAPSE    62027.29 TCPU    49218.72
 WARNING **** GENBUD **** COUL. BIPO BUFFER TOO SMALL - TO AVOID I/O SET BIPOSIZE =     2013875
 TTTTTTTTTTTTTTTTTTTTTTTTTTTTTT SHELLX      TELAPSE    62104.40 TCPU    49293.52
 TTTTTTTTTTTTTTTTTTTTTTTTTTTTTT MONMO3      TELAPSE    62109.20 TCPU    49298.32
 NUMERICALLY INTEGRATED DENSITY    898.2501348491    901.7501334567
 TTTTTTTTTTTTTTTTTTTTTTTTTTTTTT NUMDFT      TELAPSE    62115.81 TCPU    49304.91
 CYC 133 ETOT(AU) -3.144657357254E+04 DETOT -8.24E-06 tst  3.08E-07 PX  8.96E-04
 MODIFIED BROYDEN: MIX%= 100 W0=  1.000000000000E-04 W=  1.399641259833E+02
 TTTTTTTTTTTTTTTTTTTTTTTTTTTTTT FDIK        TELAPSE    62268.98 TCPU    49450.37
 POSSIBLY CONDUCTING STATE - EFERMI(AU) -9.4702617E-02 (RES. CHARGE  0.00E+00;IT.  0)
 TTTTTTTTTTTTTTTTTTTTTTTTTTTTTT PDIG        TELAPSE    62402.93 TCPU    49583.48
 CHARGE NORMALIZATION FACTOR   1.00000000
 TOTAL ATOMIC CHARGES:
   8.6422270   8.6080890   8.8025485   8.5541486   8.6381452   8.7178445
   8.5637683   8.6230651   8.5762644   8.6774389   8.7594869   8.6942462
   8.7991680   8.6562087   8.6196491   8.6717847   8.7275972   8.5786081
   8.6314326   8.8128946   8.6000033   8.7371835   8.6650170   8.6502059
   8.6833954   8.6685318   8.6356422   8.7580103   8.7078981   8.6902125
   8.6169858   8.6741126   8.6284411   8.6253390   8.8068299   8.6337471
   8.5073273   8.8457623   8.5594223   8.5901074   8.6472782   8.5639226
   8.5974523   8.6786742   8.6560473   8.7763942   8.6288799   8.6592751
   8.7171055   8.6244693   8.7458049   8.6655840   8.5698108   8.6526821
   8.6139770   8.6461716   8.7217792   8.6523253   8.5496538   8.7099938
   8.8508782   8.7009360   8.5425927   8.6081473  13.4823198  13.2577926
  13.9948009  13.9523319  14.0416269  14.0041247  13.2357073  13.4325471
  14.1100404  14.0392813  14.0341472  14.0200510  12.8835083  13.2906566
  14.0102347  14.1337436  14.0258495  14.0587497  13.4528304  13.3434422
  13.8350325  13.9800572  14.0334896  13.9841274  13.9946996  13.9987289
  13.9748682  14.0228999  13.9812491  13.9671595  14.0203078  14.0007751
  13.2075874  13.3037200  12.9197339  13.0267629  14.0018484  14.0026517
  13.9847824  14.0446195  14.1166396  14.0801398  13.9871672  13.9903623
  14.0290991  14.0349016  14.0433768  13.9751798  14.0029369  14.0123904
  14.0136648  14.0181081  13.9265130  14.0082368  14.0006603  13.9962939
  14.0224241  14.0297034  14.0790388  14.0986351  13.2296076  13.3226653
  13.1713906  13.1747640  13.2888466  13.1164793  13.3733717  13.3064746
  12.6395464  12.9135452  12.6152883  13.0628199  13.3386394  12.6501468
  13.1121873  12.7126926  12.7878675  12.6575437  12.7008060  12.5394146
  13.0354836  12.6152453  12.9553182  12.6402738  13.2197635  12.8252976
  12.9122853  12.6706010  12.6733203  12.9084918  12.8391498  13.0176884
 SUMMED SPIN DENSITY          -3.50000000
 TOTAL ATOMIC SPINS  :
  -0.0054096  -0.0006991  -0.0016097  -0.0002028  -0.0006546   0.0011534
  -0.0000831   0.0003466   0.0002136   0.0030630  -0.0011038   0.0107608
  -0.0213099   0.0015243  -0.0028014  -0.0011771   0.0059767   0.0003998
  -0.0013197  -0.0013117  -0.0000406   0.0025735   0.0003733  -0.0001727
  -0.0044416  -0.0005081   0.0197238  -0.0045397  -0.0003610   0.0276114
  -0.0027392   0.0026808  -0.0011343  -0.0260591  -0.0001087  -0.0006686
   0.0002412  -0.0058508  -0.0032944  -0.0038669   0.0002415  -0.0003270
  -0.0001522  -0.0053600  -0.0008243  -0.0006430  -0.0003958  -0.0003043
  -0.0078002  -0.0065931  -0.0027078   0.0023081  -0.0005927   0.0118205
  -0.0480270  -0.0109850  -0.0186308  -0.0009204  -0.0001163  -0.0015893
  -0.0005995  -0.0370645  -0.0004780  -0.0001949  -0.0088493  -0.0017388
  -0.0046383   0.0007898   0.0093351  -0.0027401  -0.0078341  -0.0031787
  -0.0085883   0.0010301   0.0019621   0.0018682  -0.0000466  -0.4048486
   0.0206897  -0.0497882  -0.0257434  -0.0013858  -0.1728694  -0.0050764
   0.0025570  -0.1017227   0.0092527   0.0004264   0.0133524   0.0024159
  -0.0126081  -0.0009067  -0.0093543  -0.0032508   0.0199306  -0.0068671
  -0.0243011  -0.0021966  -0.0001280  -0.0008749   0.0142118  -0.0125311
   0.0108217  -0.0028364  -0.0024555   0.0011202   0.0107477   0.0103700
  -0.0052964  -0.0041448   0.1500707   0.1799517   0.0241722   0.0249506
   0.0141854   0.0088569   0.3897558   0.0152392  -0.0044624   0.0172774
   0.0102141   0.0072366   0.0004849   0.0079468  -0.0059252   0.0015287
   0.0110428  -0.0220270   0.2667816   0.0061908  -0.0016275  -0.0010512
  -0.0046170  -0.0130253  -0.0084307  -0.0882791  -0.0284579   0.0001012
  -0.0008561  -0.0001909  -0.8191284  -0.0349405  -0.0084501  -0.0434996
  -0.0011068  -0.0239595   0.0000991  -0.0042845   0.0001876  -0.8671880
  -0.7795689  -0.0021810  -0.0085450  -0.8976713  -0.0283268  -0.0377922
 TTTTTTTTTTTTTTTTTTTTTTTTTTTTTT MOQGAD      TELAPSE    62404.26 TCPU    49584.81
 WARNING **** GENBUD **** COUL. BIPO BUFFER TOO SMALL - TO AVOID I/O SET BIPOSIZE =     2013875
 TTTTTTTTTTTTTTTTTTTTTTTTTTTTTT SHELLX      TELAPSE    62481.25 TCPU    49659.57
 TTTTTTTTTTTTTTTTTTTTTTTTTTTTTT MONMO3      TELAPSE    62489.96 TCPU    49668.27
 NUMERICALLY INTEGRATED DENSITY    898.2501348522    901.7501334591
 TTTTTTTTTTTTTTTTTTTTTTTTTTTTTT NUMDFT      TELAPSE    62496.82 TCPU    49675.11
 CYC 134 ETOT(AU) -3.144657357303E+04 DETOT -4.98E-07 tst  2.22E-08 PX  1.69E-04
 MODIFIED BROYDEN: MIX%= 100 W0=  1.000000000000E-04 W=  4.518179190873E+02
 TTTTTTTTTTTTTTTTTTTTTTTTTTTTTT FDIK        TELAPSE    62672.31 TCPU    49842.55
 POSSIBLY CONDUCTING STATE - EFERMI(AU) -9.4702617E-02 (RES. CHARGE  0.00E+00;IT.  0)
 TTTTTTTTTTTTTTTTTTTTTTTTTTTTTT PDIG        TELAPSE    62815.09 TCPU    49976.18
 CHARGE NORMALIZATION FACTOR   1.00000000
 TOTAL ATOMIC CHARGES:
   8.6422410   8.6080845   8.8025397   8.5541541   8.6381367   8.7178174
   8.5637726   8.6230431   8.5762581   8.6774314   8.7594856   8.6942530
   8.7991734   8.6561980   8.6196617   8.6717734   8.7275952   8.5786145
   8.6314261   8.8128989   8.6000034   8.7371915   8.6650266   8.6502151
   8.6834002   8.6685290   8.6356455   8.7580284   8.7079025   8.6904352
   8.6169841   8.6741175   8.6284399   8.6253528   8.8068320   8.6337482
   8.5073299   8.8457696   8.5594307   8.5901085   8.6472626   8.5639391
   8.5974515   8.6786622   8.6560470   8.7764020   8.6288779   8.6592635
   8.7171093   8.6244747   8.7458049   8.6655999   8.5698319   8.6526942
   8.6140630   8.6461762   8.7217849   8.6523262   8.5496624   8.7099946
   8.8508732   8.7009425   8.5425951   8.6081432  13.4822939  13.2577554
  13.9950844  13.9523452  14.0416659  14.0040591  13.2357251  13.4323524
  14.1100806  14.0391287  14.0341327  14.0200601  12.8834961  13.2908336
  14.0100932  14.1338091  14.0258975  14.0588164  13.4528265  13.3434557
  13.8349452  13.9801246  14.0334614  13.9842047  13.9947211  13.9986808
  13.9748958  14.0228526  13.9812841  13.9672073  14.0202325  14.0007710
  13.2076224  13.3037146  12.9197399  13.0267519  14.0017909  14.0026607
  13.9847448  14.0446112  14.1166280  14.0801424  13.9871360  13.9903036
  14.0290522  14.0348363  14.0432772  13.9752490  14.0029076  14.0123757
  14.0136511  14.0181147  13.9264384  14.0081774  14.0006874  13.9962761
  14.0224447  14.0296862  14.0790499  14.0986413  13.2296097  13.3226742
  13.1713866  13.1747962  13.2889057  13.1164967  13.3733928  13.3064900
  12.6395371  12.9135436  12.6152676  13.0628211  13.3385833  12.6501493
  13.1121903  12.7126669  12.7878541  12.6575357  12.7008052  12.5394112
  13.0354826  12.6152445  12.9553067  12.6402623  13.2197604  12.8252902
  12.9122567  12.6705857  12.6733408  12.9084869  12.8391385  13.0176912
 SUMMED SPIN DENSITY          -3.50000000
 TOTAL ATOMIC SPINS  :
  -0.0054170  -0.0006992  -0.0016090  -0.0001978  -0.0006620   0.0011511
  -0.0000835   0.0003478   0.0002135   0.0030639  -0.0011032   0.0107605
  -0.0213094   0.0015241  -0.0028014  -0.0011764   0.0059766   0.0004008
  -0.0013201  -0.0013114  -0.0000417   0.0025735   0.0003733  -0.0001727
  -0.0044401  -0.0005088   0.0197242  -0.0045398  -0.0003614   0.0275798
  -0.0027394   0.0026796  -0.0011343  -0.0260584  -0.0001090  -0.0006684
   0.0002415  -0.0058499  -0.0032943  -0.0038680   0.0002418  -0.0003272
  -0.0001520  -0.0053636  -0.0008248  -0.0006428  -0.0003960  -0.0003035
  -0.0077999  -0.0065931  -0.0027076   0.0023089  -0.0005929   0.0118222
  -0.0480242  -0.0109840  -0.0186309  -0.0009212  -0.0001161  -0.0015876
  -0.0006005  -0.0370639  -0.0004769  -0.0001951  -0.0088409  -0.0017341
  -0.0046074   0.0007940   0.0093366  -0.0027372  -0.0078346  -0.0031825
  -0.0085863   0.0010276   0.0019633   0.0018703  -0.0000490  -0.4049348
   0.0207260  -0.0498076  -0.0257504  -0.0013866  -0.1728727  -0.0050733
   0.0025587  -0.1017341   0.0092554   0.0004258   0.0133557   0.0024227
  -0.0126068  -0.0009057  -0.0093563  -0.0032494   0.0199354  -0.0068658
  -0.0243033  -0.0021974  -0.0001266  -0.0008747   0.0142171  -0.0125314
   0.0108241  -0.0028381  -0.0024550   0.0011217   0.0107460   0.0103698
  -0.0052948  -0.0041428   0.1500964   0.1799565   0.0241792   0.0249558
   0.0141959   0.0088651   0.3898356   0.0152444  -0.0044585   0.0172800
   0.0102128   0.0072382   0.0004863   0.0079483  -0.0059251   0.0015294
   0.0110481  -0.0220285   0.2667032   0.0061933  -0.0016263  -0.0010517
  -0.0046169  -0.0130238  -0.0084308  -0.0882840  -0.0284547   0.0001024
  -0.0008553  -0.0001905  -0.8191426  -0.0349397  -0.0084485  -0.0434977
  -0.0011063  -0.0239576   0.0001000  -0.0042848   0.0001879  -0.8672099
  -0.7795746  -0.0021811  -0.0085465  -0.8976794  -0.0283251  -0.0377920
 TTTTTTTTTTTTTTTTTTTTTTTTTTTTTT MOQGAD      TELAPSE    62815.92 TCPU    49977.01
 WARNING **** GENBUD **** COUL. BIPO BUFFER TOO SMALL - TO AVOID I/O SET BIPOSIZE =     2013875
 TTTTTTTTTTTTTTTTTTTTTTTTTTTTTT SHELLX      TELAPSE    62894.92 TCPU    50052.56
 TTTTTTTTTTTTTTTTTTTTTTTTTTTTTT MONMO3      TELAPSE    62896.99 TCPU    50054.63
 NUMERICALLY INTEGRATED DENSITY    898.2501348527    901.7501334594
 TTTTTTTTTTTTTTTTTTTTTTTTTTTTTT NUMDFT      TELAPSE    62903.80 TCPU    50061.41
 CYC 135 ETOT(AU) -3.144657357310E+04 DETOT -6.20E-08 tst  7.45E-10 PX  1.35E-04
 MODIFIED BROYDEN: MIX%= 100 W0=  1.000000000000E-04 W=  5.719365823094E+02
 TTTTTTTTTTTTTTTTTTTTTTTTTTTTTT FDIK        TELAPSE    63068.06 TCPU    50217.91
 POSSIBLY CONDUCTING STATE - EFERMI(AU) -9.4702617E-02 (RES. CHARGE  0.00E+00;IT.  0)
 TTTTTTTTTTTTTTTTTTTTTTTTTTTTTT PDIG        TELAPSE    63200.72 TCPU    50349.53
 CHARGE NORMALIZATION FACTOR   1.00000000
 TOTAL ATOMIC CHARGES:
   8.6422147   8.6080769   8.8025375   8.5541559   8.6381249   8.7178152
   8.5637702   8.6230394   8.5762502   8.6774223   8.7594834   8.6942426
   8.7991755   8.6561926   8.6196615   8.6717721   8.7275907   8.5786159
   8.6314249   8.8129030   8.5999994   8.7371860   8.6650281   8.6502233
   8.6834042   8.6685269   8.6356479   8.7580375   8.7079040   8.6904265
   8.6169838   8.6741202   8.6284329   8.6253576   8.8068324   8.6337488
   8.5073316   8.8457730   8.5594295   8.5901118   8.6472519   8.5639448
   8.5974508   8.6786539   8.6560454   8.7764046   8.6288775   8.6592550
   8.7171095   8.6244754   8.7458065   8.6656038   8.5698434   8.6526996
   8.6140868   8.6461804   8.7217862   8.6523242   8.5496601   8.7099949
   8.8508727   8.7009467   8.5426020   8.6081391  13.4822403  13.2577443
  13.9949085  13.9523718  14.0416618  14.0040763  13.2357098  13.4324178
  14.1100951  14.0391855  14.0341673  14.0200925  12.8834875  13.2907980
  14.0101149  14.1338135  14.0258968  14.0587810  13.4528326  13.3434387
  13.8350151  13.9801211  14.0335073  13.9842127  13.9947114  13.9986772
  13.9749107  14.0228853  13.9813166  13.9672158  14.0202410  14.0007916
  13.2076139  13.3037071  12.9197470  13.0267630  14.0018026  14.0026668
  13.9847547  14.0446159  14.1166283  14.0801481  13.9871433  13.9903174
  14.0290570  14.0348484  14.0432802  13.9751959  14.0029252  14.0123715
  14.0136602  14.0181271  13.9264520  14.0081721  14.0007067  13.9962927
  14.0224665  14.0297095  14.0790545  14.0986526  13.2296022  13.3226676
  13.1713801  13.1747833  13.2888809  13.1164950  13.3733872  13.3064741
  12.6395270  12.9135434  12.6152426  13.0628109  13.3385672  12.6501507
  13.1121852  12.7126441  12.7878329  12.6575371  12.7008059  12.5394130
  13.0354842  12.6152364  12.9552902  12.6402527  13.2197505  12.8252790
  12.9122164  12.6705715  12.6733490  12.9084871  12.8391393  13.0177033
 SUMMED SPIN DENSITY          -3.50000000
 TOTAL ATOMIC SPINS  :
  -0.0054165  -0.0006994  -0.0016087  -0.0001958  -0.0006622   0.0011527
  -0.0000833   0.0003476   0.0002139   0.0030653  -0.0011027   0.0107617
  -0.0213075   0.0015246  -0.0028008  -0.0011762   0.0059778   0.0004013
  -0.0013198  -0.0013113  -0.0000415   0.0025749   0.0003737  -0.0001726
  -0.0044371  -0.0005089   0.0197268  -0.0045380  -0.0003614   0.0275896
  -0.0027391   0.0026801  -0.0011343  -0.0260571  -0.0001089  -0.0006680
   0.0002416  -0.0058480  -0.0032937  -0.0038673   0.0002417  -0.0003270
  -0.0001515  -0.0053637  -0.0008246  -0.0006425  -0.0003959  -0.0003030
  -0.0077990  -0.0065929  -0.0027072   0.0023100  -0.0005928   0.0118262
  -0.0480203  -0.0109808  -0.0186276  -0.0009212  -0.0001160  -0.0015871
  -0.0006002  -0.0370618  -0.0004769  -0.0001950  -0.0088384  -0.0017364
  -0.0045602   0.0007940   0.0093340  -0.0027376  -0.0078377  -0.0032120
  -0.0085908   0.0010192   0.0019647   0.0018709  -0.0000495  -0.4049021
   0.0207310  -0.0498078  -0.0257498  -0.0013890  -0.1728738  -0.0050765
   0.0025545  -0.1018004   0.0092513   0.0004272   0.0133564   0.0024233
  -0.0126094  -0.0009066  -0.0093532  -0.0032477   0.0199362  -0.0068727
  -0.0243030  -0.0021975  -0.0001261  -0.0008754   0.0142165  -0.0125296
   0.0108237  -0.0028372  -0.0024547   0.0011225   0.0107481   0.0103716
  -0.0052960  -0.0041442   0.1501116   0.1799747   0.0241791   0.0249554
   0.0141941   0.0088647   0.3898091   0.0152436  -0.0044588   0.0172816
   0.0102143   0.0072376   0.0004868   0.0079491  -0.0059253   0.0015295
   0.0110478  -0.0220398   0.2667252   0.0061915  -0.0016263  -0.0010518
  -0.0046163  -0.0130233  -0.0084307  -0.0882832  -0.0284542   0.0001023
  -0.0008551  -0.0001905  -0.8191479  -0.0349398  -0.0084486  -0.0434987
  -0.0011064  -0.0239571   0.0001003  -0.0042851   0.0001876  -0.8672249
  -0.7795793  -0.0021814  -0.0085459  -0.8976924  -0.0283248  -0.0377905
 TTTTTTTTTTTTTTTTTTTTTTTTTTTTTT MOQGAD      TELAPSE    63201.42 TCPU    50350.22
 WARNING **** GENBUD **** COUL. BIPO BUFFER TOO SMALL - TO AVOID I/O SET BIPOSIZE =     2013875
 TTTTTTTTTTTTTTTTTTTTTTTTTTTTTT SHELLX      TELAPSE    63276.02 TCPU    50424.54
 +++ ENERGIES IN A.U. +++
 ::: EXT EL-POLE                                  -4.3931186424622E+04
 ::: EXT EL-SPHEROPOLE                             3.1887016304757E+02
 ::: BIELET ZONE E-E                               5.3505110430198E+04
 ::: TOTAL E-E                                     9.8927941686232E+03
 ::: TOTAL E-N + N-E                              -6.5127217602399E+04
 ::: TOTAL N-N                                    -5.1949451828351E+03
 ::: KINETIC ENERGY                                3.1335928631685E+04
 ::: PSEUDO TOTAL   ENERGY                        -2.9093439984926E+04
 ::: VIRIAL COEFFICIENT                            1.0371092516453E+00
 TTTTTTTTTTTTTTTTTTTTTTTTTTTTTT MONMO3      TELAPSE    63280.66 TCPU    50429.18
 NUMERICALLY INTEGRATED DENSITY    898.2501348542    901.7501334607
 TTTTTTTTTTTTTTTTTTTTTTTTTTTTTT NUMDFT      TELAPSE    63287.37 TCPU    50435.87
 CYC 136 ETOT(AU) -3.144657357305E+04 DETOT  4.58E-08 tst  2.19E-10 PX  1.35E-04

 == SCF ENDED - CONVERGENCE ON ENERGY      E(AU) -3.1446573573049E+04 CYCLES 136


 ENERGY EXPRESSION=HARTREE+FOCK EXCH*0.05000+(BECKE  EXCH)*0.95000+LYP    CORR

 FINITE TEMPERATURE DFT CALCULATION 
 TEMPERATURE      (T)    1.000000000000E-13 HARTREE 
 ENERGY           (E)   -3.144657357305E+04
 FREE ENERGY      (F)   -3.144657357305E+04
 ELECTRON ENTROPY (S)    0.000000000000E+00
 (E(T)+F(T))/2    (E0)  -3.144657357305E+04


 TOTAL ENERGY(DFT)(AU)(136) -3.1446573573049E+04 DE 4.6E-08 tester 2.2E-10
 TTTTTTTTTTTTTTTTTTTTTTTTTTTTTT EDFT        TELAPSE    63362.51 TCPU    50505.14
 EIGENVECTORS IN FORTRAN UNIT  8
 TTTTTTTTTTTTTTTTTTTTTTTTTTTTTT END         TELAPSE    63404.45 TCPU    50544.29
 EEEEEEEEEE TERMINATION  DATE 23 04 2015 TIME 07:02:10.2
NODE    0 CPU TIME =     50544.295
    TOTAL CPU TIME =  10142710.488
