--------------------------------------------------------------------------
WARNING: Open MPI will create a shared memory backing file in a
directory that appears to be mounted on a network filesystem.
Creating the shared memory backup file on a network file system, such
as NFS or Lustre is not recommended -- it may cause excessive network
traffic to your file servers and/or cause shared memory traffic in
Open MPI to be much slower than expected.

You may want to check what the typical temporary directory is on your
node.  Possible sources of the location of this temporary directory
include the $TEMPDIR, $TEMP, and $TMP environment variables.

Note, too, that system administrators can set a list of filesystems
where Open MPI is disallowed from creating temporary files by settings
the MCA parameter "orte_no_session_dir".

  Local host: r3i1n5
  Fileame:    /ichec/work/scratch/tmp/270869.service1.cb3.ichec.ie/openmpi-sessions-emehes@r3i1n5_0/18710/1/shared_mem_pool.r3i1n5

You can set the MCA paramter shmem_mmap_enable_nfs_warning to 0 to
disable this message.
--------------------------------------------------------------------------
--------------------------------------------------------------------------
WARNING: It appears that your OpenFabrics subsystem is configured to only
allow registering part of your physical memory.  This can cause MPI jobs to
run with erratic performance, hang, and/or crash.

This may be caused by your OpenFabrics vendor limiting the amount of
physical memory that can be registered.  You should investigate the
relevant Linux kernel module parameters that control how much physical
memory can be registered, and increase them to allow registering all
physical memory on your machine.

See this Open MPI FAQ item for more information on these Linux kernel module
parameters:

    http://www.open-mpi.org/faq/?category=openfabrics#ib-locked-pages

  Local host:              r3i1n5
  Registerable memory:     32768 MiB
  Total memory:            65506 MiB

Your MPI job will continue, but may be behave poorly and/or hang.
--------------------------------------------------------------------------
         192 PROCESSORS WORKING

         
 *******************************************************************************
 *                                                                             *
 *                                CRYSTAL09                                    *
 *                              public : 2.0                                   *
 *                      December 10th, 2012 - parallel executable              *
 *                                                                             *
 *                                                                             *
 *                                                                             *
 *                              MAIN AUTHORS                                   *
 *                                                                             *
 *    R. DOVESI(1,10), V.R. SAUNDERS(2), C. ROETTI(1,10), R. ORLANDO (1,3),    *
 *  C.M. ZICOVICH-WILSON(1,4), F. PASCALE(5), B. CIVALLERI(1,10), K. DOLL(6),  *
 *       N.M. HARRISON(2,7), I. J. BUSH(2), Ph. D'ARCO(8), M. LLUNELL(9)       *
 *                                                                             *
 * (1) THEORETICAL CHEMISTRY GROUP - UNIVERSITA' DI TORINO - TORINO (ITALY)    *
 *      http://www.crystal.unito.it                                            *
 * (2) COMPUTATIONAL SCIENCE & ENGINEERING DEPARTMENT - STFC DARESBURY LABORATO*Y (UK)
 *     http://www.cse.stfc.ac.uk/cmg/CRYSTAL/                                  *
 * (3) UNIVERSITA' DEL PIEMONTE ORIENTALE - ALESSANDRIA (ITALY)                *
 * (4) UNIVERSIDAD AUTONOMA DEL ESTADO DE MORELOS - CUERNAVACA (MEXICO)        *
 * (5) UNIVERSITE' HENRI POINCARE' - NANCY (FRANCE)                            *
 * (6) MPI FUER FESTKOERPERFORSCHUNG - STUTTGART (GERMANY)                     *
 * (7) IMPERIAL COLLEGE - LONDON (UK)                                          *
 * (8) UNIVERSITE' PIERRE ET MARIE CURIE - PARIS (FRANCE)                      *
 * (9) UNIVERSIDAD DE BARCELONA - BARCELONA (SPAIN)                            *
 *(10) NIS - NANOSTRUCTURED INTERFACES AND SURFACES - TORINO (ITALY)           *
 *     http://www.crystal.unito.it                                             *
 *******************************************************************************
 EEEEEEEEEE STARTING  DATE 04 09 2014 TIME 22:18:00.9
 Created with astools                                                            

 CRYSTAL CALCULATION
 (INPUT ACCORDING TO THE INTERNATIONAL TABLES FOR X-RAY CRYSTALLOGRAPHY)
 CRYSTAL FAMILY                       :  TRICLINIC   
 CRYSTAL CLASS  (GROTH - 1921)        :  TRICLINIC PEDIAL                     

 SPACE GROUP (NONCENTROSYMMETRIC)     :  P 1             

 LATTICE PARAMETERS  (ANGSTROMS AND DEGREES) - CONVENTIONAL CELL
        A           B           C        ALPHA        BETA       GAMMA
    10.84000    10.84000    18.86120    90.00000    90.00000    90.00000


 NUMBER OF IRREDUCIBLE ATOMS IN THE CONVENTIONAL CELL:  153

 INPUT COORDINATES

 ATOM AT. N.              COORDINATES
   1   1     4.989000000000E-02  6.303300000000E-02  4.338750000000E-01
   2   1     6.633520000000E-01  1.806540000000E-01  5.813240000000E-01
   3   1     7.489780000000E-01  4.811340000000E-01  9.883890000000E-01
   4   1     8.076740000000E-01  8.545690000000E-01  6.447280000000E-01
   5   1     7.340000000000E-01  8.188900000000E-01  7.591850000000E-01
   6   8     2.519110000000E-01  3.792760000000E-01  6.296570000000E-01
   7   8     1.459860000000E-01  8.180640000000E-01  6.917800000000E-01
   8   8     4.830460000000E-01  3.224260000000E-01  6.093220000000E-01
   9   8     9.113070000000E-01  4.591390000000E-01  5.801510000000E-01
  10   8     1.188900000000E-01  7.229800000000E-02  6.767270000000E-01
  11   8     4.758160000000E-01  5.866690000000E-01  5.953490000000E-01
  12   8     9.007230000000E-01  6.872040000000E-01  6.506470000000E-01
  13   8     3.271690000000E-01  3.109620000000E-01  5.065590000000E-01
  14   8     5.601730000000E-01  9.945870000000E-01  5.340690000000E-01
  15   8     8.740140000000E-01  1.224540000000E-01  6.537030000000E-01
  16   8     3.677200000000E-02  1.363710000000E-01  5.503120000000E-01
  17   8     5.243220000000E-01  7.480450000000E-01  6.958200000000E-01
  18   8     7.738300000000E-02  5.263200000000E-01  6.688670000000E-01
  19   8     2.112750000000E-01  9.347750000000E-01  5.781800000000E-01
  20   8     1.377100000000E-01  6.986600000000E-01  5.728330000000E-01
  21   8     9.816290000000E-01  9.135780000000E-01  5.996900000000E-01
  22   8     6.504640000000E-01  7.687190000000E-01  5.727820000000E-01
  23   8     4.139290000000E-01  8.114300000000E-01  5.683020000000E-01
  24   8     3.204290000000E-01  1.415620000000E-01  6.078110000000E-01
  25   8     2.535160000000E-01  8.331930000000E-01  8.010790000000E-01
  26   8     8.581700000000E-02  2.549350000000E-01  8.777240000000E-01
  27   8     8.898400000000E-01  3.246970000000E-01  9.587550000000E-01
  28   8     3.862910000000E-01  5.179800000000E-02  8.132300000000E-01
  29   8     6.327390000000E-01  2.027440000000E-01  6.849200000000E-01
  30   8     2.341620000000E-01  5.899940000000E-01  8.815540000000E-01
  31   8     7.649060000000E-01  6.542900000000E-02  7.735580000000E-01
  32   8     3.570510000000E-01  3.905840000000E-01  8.530250000000E-01
  33   8     2.505030000000E-01  5.181770000000E-01  7.550090000000E-01
  34   8     9.485020000000E-01  8.716470000000E-01  7.489250000000E-01
  35   8     1.044319000000E+00  8.581820000000E-01  9.526350000000E-01
  36   8     8.664430000000E-01  4.767260000000E-01  7.189130000000E-01
  37   8     4.681700000000E-01  6.066420000000E-01  8.099660000000E-01
  38   8     6.804660000000E-01  9.759160000000E-01  6.530170000000E-01
  39   8     5.196310000000E-01  9.822930000000E-01  9.358460000000E-01
  40   8     5.861350000000E-01  6.742440000000E-01  9.678420000000E-01
  41   8     4.953960000000E-01  8.475530000000E-01  8.045360000000E-01
  42   8     6.771530000000E-01  7.517290000000E-01  8.510960000000E-01
  43   8     8.862630000000E-01  1.059640000000E-01  8.994150000000E-01
  44   8     5.445740000000E-01  3.824820000000E-01  9.461730000000E-01
  45   8     6.777090000000E-01  2.143160000000E-01  8.669580000000E-01
  46   8     8.873000000000E-02  9.719660000000E-01  8.325100000000E-01
  47   8     2.718430000000E-01  9.593000000000E-03  9.303860000000E-01
  48   8     3.847330000000E-01  5.243510000000E-01  9.758120000000E-01
  49   8     4.481400000000E-02  4.672070000000E-01  8.194650000000E-01
  50   8     1.198370000000E-01  3.034820000000E-01  7.355450000000E-01
  51   8     8.944950000000E-01  2.666560000000E-01  7.961370000000E-01
  52   8     3.548400000000E-01  9.612470000000E-01  6.940410000000E-01
  53   8     4.516110000000E-01  3.947230000000E-01  7.269020000000E-01
  54   8     6.655340000000E-01  3.787230000000E-01  7.685970000000E-01
  55   8     6.792460000000E-01  6.172810000000E-01  7.506350000000E-01
  56   8     8.105870000000E-01  5.124350000000E-01  8.540190000000E-01
  57   8     6.723600000000E-02  7.063060000000E-01  8.059480000000E-01
  58   8     6.562040000000E-01  4.473720000000E-01  6.341050000000E-01
  59   8     9.882140000000E-01  5.582000000000E-01  9.451750000000E-01
  60   8     3.218010000000E-01  7.702030000000E-01  9.580800000000E-01
  61   8     4.575080000000E-01  1.987600000000E-01  9.179450000000E-01
  62  14     1.052360000000E-01  1.133930000000E-01  2.139000000000E-02
  63  14     2.672660000000E-01  2.695620000000E-01  2.243000000000E-02
  64  14     1.596150000000E-01  4.213060000000E-01  8.265900000000E-02
  65  14     4.314850000000E-01  1.636940000000E-01  8.012800000000E-02
  66  14     3.890800000000E-02  3.003570000000E-01  1.556210000000E-01
  67  14     3.060460000000E-01  5.874200000000E-02  1.593440000000E-01
  68  14     1.750060000000E-01  1.819040000000E-01  2.254180000000E-01
  69  14     4.205730000000E-01  4.146580000000E-01  2.209440000000E-01
  70  14     7.307300000000E-02  5.826850000000E-01  1.017720000000E+00
  71  14     3.486010000000E-01  8.386710000000E-01  3.628100000000E-02
  72  14     1.824380000000E-01  9.393740000000E-01  8.696000000000E-02
  73  14     4.183580000000E-01  6.792810000000E-01  1.078920000000E-01
  74  14     5.001700000000E-02  8.139470000000E-01  1.525160000000E-01
  75  14     2.833400000000E-01  5.406840000000E-01  1.585480000000E-01
  76  14     1.656020000000E-01  6.803080000000E-01  2.229310000000E-01
  77  14     4.265760000000E-01  9.221000000000E-01  2.223730000000E-01
  78  14     5.169850000000E-01  9.785430000000E-01  2.603500000000E-02
  79  14     7.798570000000E-01  2.815580000000E-01  2.090200000000E-02
  80  14     6.741660000000E-01  4.451200000000E-01  7.487000000000E-02
  81  14     9.187970000000E-01  1.618550000000E-01  8.880900000000E-02
  82  14     5.524590000000E-01  3.061100000000E-01  1.437030000000E-01
  83  14     7.908980000000E-01  3.158900000000E-02  1.525590000000E-01
  84  14     6.732870000000E-01  1.790700000000E-01  2.158240000000E-01
  85  14     9.195510000000E-01  4.347880000000E-01  2.202680000000E-01
  86  14     5.227220000000E-01  5.749790000000E-01  2.133900000000E-02
  87  14     8.876620000000E-01  8.537480000000E-01  9.856700000000E-01
  88  14     6.999580000000E-01  8.936360000000E-01  7.020900000000E-02
  89  14     9.255710000000E-01  7.043110000000E-01  7.610900000000E-02
  90  14     5.642870000000E-01  8.068820000000E-01  1.562540000000E-01
  91  14     8.055390000000E-01  5.662700000000E-01  1.457840000000E-01
  92  14     6.813700000000E-01  6.780790000000E-01  2.241880000000E-01
  93  14     9.264690000000E-01  9.275470000000E-01  2.276170000000E-01
  94  14     5.531500000000E-02  5.418600000000E-02  2.949230000000E-01
  95  14     3.007150000000E-01  2.990980000000E-01  3.002050000000E-01
  96  14     4.226300000000E-02  5.571650000000E-01  2.939590000000E-01
  97  14     2.957610000000E-01  8.012630000000E-01  2.908160000000E-01
  98  14     5.427770000000E-01  5.850700000000E-02  2.860070000000E-01
  99  14     8.002930000000E-01  3.025360000000E-01  2.880530000000E-01
 100  14     5.489170000000E-01  5.458640000000E-01  2.839850000000E-01
 101  14     8.010350000000E-01  8.025000000000E-01  2.964950000000E-01
 102  14     1.783640000000E-01  4.408460000000E-01  3.629420000000E-01
 103  14     4.244640000000E-01  1.635930000000E-01  3.679930000000E-01
 104  14     3.776700000000E-02  3.328530000000E-01  4.323390000000E-01
 105  14     2.980440000000E-01  3.919500000000E-02  4.440520000000E-01
 106  14     1.211980000000E-01  1.576720000000E-01  4.788340000000E-01
 107  14     4.354070000000E-01  4.080100000000E-01  4.692940000000E-01
 108  14     1.753420000000E-01  9.244330000000E-01  3.663170000000E-01
 109  14     4.272860000000E-01  6.739520000000E-01  3.525040000000E-01
 110  14     3.821600000000E-02  8.037940000000E-01  4.334410000000E-01
 111  14     3.073480000000E-01  5.662150000000E-01  4.323900000000E-01
 112  14     1.327200000000E-01  6.410550000000E-01  4.910030000000E-01
 113  14     4.439500000000E-01  9.096760000000E-01  5.027200000000E-01
 114  14     6.704490000000E-01  4.246890000000E-01  3.563250000000E-01
 115  14     9.331070000000E-01  1.854530000000E-01  3.608560000000E-01
 116  14     5.792910000000E-01  2.759840000000E-01  4.251420000000E-01
 117  14     7.978920000000E-01  7.109000000000E-02  4.293720000000E-01
 118  14     7.224970000000E-01  2.144580000000E-01  5.141360000000E-01
 119  14     8.697470000000E-01  3.868150000000E-01  5.066120000000E-01
 120  14     6.761740000000E-01  9.464150000000E-01  3.549210000000E-01
 121  14     9.144240000000E-01  6.725650000000E-01  3.682240000000E-01
 122  14     5.504500000000E-01  8.072730000000E-01  4.140630000000E-01
 123  14     7.864180000000E-01  5.423420000000E-01  4.367900000000E-01
 124  14     7.069600000000E-01  7.271240000000E-01  4.838020000000E-01
 125  14     8.560240000000E-01  8.901280000000E-01  4.885000000000E-01
 126  14     3.417550000000E-01  2.833550000000E-01  5.902460000000E-01
 127  14     9.990620000000E-01  1.061851000000E+00  6.231690000000E-01
 128  14     1.132150000000E-01  8.299090000000E-01  6.099890000000E-01
 129  14     5.449100000000E-01  4.572440000000E-01  5.735920000000E-01
 130  14     9.300870000000E-01  5.412350000000E-01  6.513450000000E-01
 131  14     2.533160000000E-01  1.024304000000E+00  6.443600000000E-01
 132  14     5.120520000000E-01  7.280340000000E-01  6.136620000000E-01
 133  14     6.891080000000E-01  9.395960000000E-01  5.695550000000E-01
 134  14     4.054960000000E-01  5.397600000000E-02  8.972040000000E-01
 135  14     8.402540000000E-01  5.302840000000E-01  9.367100000000E-01
 136  14     3.713620000000E-01  9.129810000000E-01  7.761430000000E-01
 137  14     7.376990000000E-01  9.766500000000E-02  6.908520000000E-01
 138  14     1.385570000000E-01  5.807880000000E-01  8.181760000000E-01
 139  14     8.357650000000E-01  7.948110000000E-01  7.108310000000E-01
 140  14     5.715720000000E-01  7.178900000000E-01  7.828930000000E-01
 141  14     2.638210000000E-01  6.300790000000E-01  9.622710000000E-01
 142  14     8.052200000000E-01  1.622120000000E-01  8.335010000000E-01
 143  14     9.848710000000E-01  2.036300000000E-01  9.361890000000E-01
 144  14     3.908570000000E-01  3.645590000000E-01  9.355410000000E-01
 145  14     3.463100000000E-02  3.221210000000E-01  8.057340000000E-01
 146  14     9.956600000000E-02  8.505750000000E-01  7.757290000000E-01
 147  14     6.106810000000E-01  2.476690000000E-01  9.404270000000E-01
 148  14     5.915850000000E-01  3.519040000000E-01  6.952550000000E-01
 149  14     1.208850000000E-01  9.798010000000E-01  9.168320000000E-01
 150  14     1.744860000000E-01  4.281480000000E-01  6.950920000000E-01
 151  14     7.157080000000E-01  7.416490000000E-01  9.339580000000E-01
 152  14     3.998290000000E-01  4.839130000000E-01  7.893860000000E-01
 153  14     7.560420000000E-01  5.001520000000E-01  7.747970000000E-01

 *******************************************************************************

 << INFORMATION >>: FROM NOW ON, ALL COORDINATES REFER TO THE PRIMITIVE CELL

 *******************************************************************************

 LATTICE PARAMETERS  (ANGSTROMS AND DEGREES) - PRIMITIVE CELL
       A          B          C         ALPHA     BETA     GAMMA        VOLUME
   10.84000   10.84000   18.86120    90.00000  90.00000  90.00000   2216.296623

 COORDINATES OF THE EQUIVALENT ATOMS (FRACTIONAL UNITS)

 N. ATOM EQUIV AT. N.          X                  Y                  Z

   1   1   1    1 H     4.98900000000E-02  6.30330000000E-02  4.33875000000E-01

   2   2   1    1 H    -3.36648000000E-01  1.80654000000E-01 -4.18676000000E-01

   3   3   1    1 H    -2.51022000000E-01  4.81134000000E-01 -1.16110000000E-02

   4   4   1    1 H    -1.92326000000E-01 -1.45431000000E-01 -3.55272000000E-01

   5   5   1    1 H    -2.66000000000E-01 -1.81110000000E-01 -2.40815000000E-01

   6   6   1    8 O     2.51911000000E-01  3.79276000000E-01 -3.70343000000E-01

   7   7   1    8 O     1.45986000000E-01 -1.81936000000E-01 -3.08220000000E-01

   8   8   1    8 O     4.83046000000E-01  3.22426000000E-01 -3.90678000000E-01

   9   9   1    8 O    -8.86930000000E-02  4.59139000000E-01 -4.19849000000E-01

  10  10   1    8 O     1.18890000000E-01  7.22980000000E-02 -3.23273000000E-01

  11  11   1    8 O     4.75816000000E-01 -4.13331000000E-01 -4.04651000000E-01

  12  12   1    8 O    -9.92770000000E-02 -3.12796000000E-01 -3.49353000000E-01

  13  13   1    8 O     3.27169000000E-01  3.10962000000E-01 -4.93441000000E-01

  14  14   1    8 O    -4.39827000000E-01 -5.41300000000E-03 -4.65931000000E-01

  15  15   1    8 O    -1.25986000000E-01  1.22454000000E-01 -3.46297000000E-01

  16  16   1    8 O     3.67720000000E-02  1.36371000000E-01 -4.49688000000E-01

  17  17   1    8 O    -4.75678000000E-01 -2.51955000000E-01 -3.04180000000E-01

  18  18   1    8 O     7.73830000000E-02 -4.73680000000E-01 -3.31133000000E-01

  19  19   1    8 O     2.11275000000E-01 -6.52250000000E-02 -4.21820000000E-01

  20  20   1    8 O     1.37710000000E-01 -3.01340000000E-01 -4.27167000000E-01

  21  21   1    8 O    -1.83710000000E-02 -8.64220000000E-02 -4.00310000000E-01

  22  22   1    8 O    -3.49536000000E-01 -2.31281000000E-01 -4.27218000000E-01

  23  23   1    8 O     4.13929000000E-01 -1.88570000000E-01 -4.31698000000E-01

  24  24   1    8 O     3.20429000000E-01  1.41562000000E-01 -3.92189000000E-01

  25  25   1    8 O     2.53516000000E-01 -1.66807000000E-01 -1.98921000000E-01

  26  26   1    8 O     8.58170000000E-02  2.54935000000E-01 -1.22276000000E-01

  27  27   1    8 O    -1.10160000000E-01  3.24697000000E-01 -4.12450000000E-02

  28  28   1    8 O     3.86291000000E-01  5.17980000000E-02 -1.86770000000E-01

  29  29   1    8 O    -3.67261000000E-01  2.02744000000E-01 -3.15080000000E-01

  30  30   1    8 O     2.34162000000E-01 -4.10006000000E-01 -1.18446000000E-01

  31  31   1    8 O    -2.35094000000E-01  6.54290000000E-02 -2.26442000000E-01

  32  32   1    8 O     3.57051000000E-01  3.90584000000E-01 -1.46975000000E-01

  33  33   1    8 O     2.50503000000E-01 -4.81823000000E-01 -2.44991000000E-01

  34  34   1    8 O    -5.14980000000E-02 -1.28353000000E-01 -2.51075000000E-01

  35  35   1    8 O     4.43190000000E-02 -1.41818000000E-01 -4.73650000000E-02

  36  36   1    8 O    -1.33557000000E-01  4.76726000000E-01 -2.81087000000E-01

  37  37   1    8 O     4.68170000000E-01 -3.93358000000E-01 -1.90034000000E-01

  38  38   1    8 O    -3.19534000000E-01 -2.40840000000E-02 -3.46983000000E-01

  39  39   1    8 O    -4.80369000000E-01 -1.77070000000E-02 -6.41540000000E-02

  40  40   1    8 O    -4.13865000000E-01 -3.25756000000E-01 -3.21580000000E-02

  41  41   1    8 O     4.95396000000E-01 -1.52447000000E-01 -1.95464000000E-01

  42  42   1    8 O    -3.22847000000E-01 -2.48271000000E-01 -1.48904000000E-01

  43  43   1    8 O    -1.13737000000E-01  1.05964000000E-01 -1.00585000000E-01

  44  44   1    8 O    -4.55426000000E-01  3.82482000000E-01 -5.38270000000E-02

  45  45   1    8 O    -3.22291000000E-01  2.14316000000E-01 -1.33042000000E-01

  46  46   1    8 O     8.87300000000E-02 -2.80340000000E-02 -1.67490000000E-01

  47  47   1    8 O     2.71843000000E-01  9.59300000000E-03 -6.96140000000E-02

  48  48   1    8 O     3.84733000000E-01 -4.75649000000E-01 -2.41880000000E-02

  49  49   1    8 O     4.48140000000E-02  4.67207000000E-01 -1.80535000000E-01

  50  50   1    8 O     1.19837000000E-01  3.03482000000E-01 -2.64455000000E-01

  51  51   1    8 O    -1.05505000000E-01  2.66656000000E-01 -2.03863000000E-01

  52  52   1    8 O     3.54840000000E-01 -3.87530000000E-02 -3.05959000000E-01

  53  53   1    8 O     4.51611000000E-01  3.94723000000E-01 -2.73098000000E-01

  54  54   1    8 O    -3.34466000000E-01  3.78723000000E-01 -2.31403000000E-01

  55  55   1    8 O    -3.20754000000E-01 -3.82719000000E-01 -2.49365000000E-01

  56  56   1    8 O    -1.89413000000E-01 -4.87565000000E-01 -1.45981000000E-01

  57  57   1    8 O     6.72360000000E-02 -2.93694000000E-01 -1.94052000000E-01

  58  58   1    8 O    -3.43796000000E-01  4.47372000000E-01 -3.65895000000E-01

  59  59   1    8 O    -1.17860000000E-02 -4.41800000000E-01 -5.48250000000E-02

  60  60   1    8 O     3.21801000000E-01 -2.29797000000E-01 -4.19200000000E-02

  61  61   1    8 O     4.57508000000E-01  1.98760000000E-01 -8.20550000000E-02

  62  62   1   14 SI    1.05236000000E-01  1.13393000000E-01  2.13900000000E-02

  63  63   1   14 SI    2.67266000000E-01  2.69562000000E-01  2.24300000000E-02

  64  64   1   14 SI    1.59615000000E-01  4.21306000000E-01  8.26590000000E-02

  65  65   1   14 SI    4.31485000000E-01  1.63694000000E-01  8.01280000000E-02

  66  66   1   14 SI    3.89080000000E-02  3.00357000000E-01  1.55621000000E-01

  67  67   1   14 SI    3.06046000000E-01  5.87420000000E-02  1.59344000000E-01

  68  68   1   14 SI    1.75006000000E-01  1.81904000000E-01  2.25418000000E-01

  69  69   1   14 SI    4.20573000000E-01  4.14658000000E-01  2.20944000000E-01

  70  70   1   14 SI    7.30730000000E-02 -4.17315000000E-01  1.77200000000E-02

  71  71   1   14 SI    3.48601000000E-01 -1.61329000000E-01  3.62810000000E-02

  72  72   1   14 SI    1.82438000000E-01 -6.06260000000E-02  8.69600000000E-02

  73  73   1   14 SI    4.18358000000E-01 -3.20719000000E-01  1.07892000000E-01

  74  74   1   14 SI    5.00170000000E-02 -1.86053000000E-01  1.52516000000E-01

  75  75   1   14 SI    2.83340000000E-01 -4.59316000000E-01  1.58548000000E-01

  76  76   1   14 SI    1.65602000000E-01 -3.19692000000E-01  2.22931000000E-01

  77  77   1   14 SI    4.26576000000E-01 -7.79000000000E-02  2.22373000000E-01

  78  78   1   14 SI   -4.83015000000E-01 -2.14570000000E-02  2.60350000000E-02

  79  79   1   14 SI   -2.20143000000E-01  2.81558000000E-01  2.09020000000E-02

  80  80   1   14 SI   -3.25834000000E-01  4.45120000000E-01  7.48700000000E-02

  81  81   1   14 SI   -8.12030000000E-02  1.61855000000E-01  8.88090000000E-02

  82  82   1   14 SI   -4.47541000000E-01  3.06110000000E-01  1.43703000000E-01

  83  83   1   14 SI   -2.09102000000E-01  3.15890000000E-02  1.52559000000E-01

  84  84   1   14 SI   -3.26713000000E-01  1.79070000000E-01  2.15824000000E-01

  85  85   1   14 SI   -8.04490000000E-02  4.34788000000E-01  2.20268000000E-01

  86  86   1   14 SI   -4.77278000000E-01 -4.25021000000E-01  2.13390000000E-02

  87  87   1   14 SI   -1.12338000000E-01 -1.46252000000E-01 -1.43300000000E-02

  88  88   1   14 SI   -3.00042000000E-01 -1.06364000000E-01  7.02090000000E-02

  89  89   1   14 SI   -7.44290000000E-02 -2.95689000000E-01  7.61090000000E-02

  90  90   1   14 SI   -4.35713000000E-01 -1.93118000000E-01  1.56254000000E-01

  91  91   1   14 SI   -1.94461000000E-01 -4.33730000000E-01  1.45784000000E-01

  92  92   1   14 SI   -3.18630000000E-01 -3.21921000000E-01  2.24188000000E-01

  93  93   1   14 SI   -7.35310000000E-02 -7.24530000000E-02  2.27617000000E-01

  94  94   1   14 SI    5.53150000000E-02  5.41860000000E-02  2.94923000000E-01

  95  95   1   14 SI    3.00715000000E-01  2.99098000000E-01  3.00205000000E-01

  96  96   1   14 SI    4.22630000000E-02 -4.42835000000E-01  2.93959000000E-01

  97  97   1   14 SI    2.95761000000E-01 -1.98737000000E-01  2.90816000000E-01

  98  98   1   14 SI   -4.57223000000E-01  5.85070000000E-02  2.86007000000E-01

  99  99   1   14 SI   -1.99707000000E-01  3.02536000000E-01  2.88053000000E-01

 100 100   1   14 SI   -4.51083000000E-01 -4.54136000000E-01  2.83985000000E-01

 101 101   1   14 SI   -1.98965000000E-01 -1.97500000000E-01  2.96495000000E-01

 102 102   1   14 SI    1.78364000000E-01  4.40846000000E-01  3.62942000000E-01

 103 103   1   14 SI    4.24464000000E-01  1.63593000000E-01  3.67993000000E-01

 104 104   1   14 SI    3.77670000000E-02  3.32853000000E-01  4.32339000000E-01

 105 105   1   14 SI    2.98044000000E-01  3.91950000000E-02  4.44052000000E-01

 106 106   1   14 SI    1.21198000000E-01  1.57672000000E-01  4.78834000000E-01

 107 107   1   14 SI    4.35407000000E-01  4.08010000000E-01  4.69294000000E-01

 108 108   1   14 SI    1.75342000000E-01 -7.55670000000E-02  3.66317000000E-01

 109 109   1   14 SI    4.27286000000E-01 -3.26048000000E-01  3.52504000000E-01

 110 110   1   14 SI    3.82160000000E-02 -1.96206000000E-01  4.33441000000E-01

 111 111   1   14 SI    3.07348000000E-01 -4.33785000000E-01  4.32390000000E-01

 112 112   1   14 SI    1.32720000000E-01 -3.58945000000E-01  4.91003000000E-01

 113 113   1   14 SI    4.43950000000E-01 -9.03240000000E-02 -4.97280000000E-01

 114 114   1   14 SI   -3.29551000000E-01  4.24689000000E-01  3.56325000000E-01

 115 115   1   14 SI   -6.68930000000E-02  1.85453000000E-01  3.60856000000E-01

 116 116   1   14 SI   -4.20709000000E-01  2.75984000000E-01  4.25142000000E-01

 117 117   1   14 SI   -2.02108000000E-01  7.10900000000E-02  4.29372000000E-01

 118 118   1   14 SI   -2.77503000000E-01  2.14458000000E-01 -4.85864000000E-01

 119 119   1   14 SI   -1.30253000000E-01  3.86815000000E-01 -4.93388000000E-01

 120 120   1   14 SI   -3.23826000000E-01 -5.35850000000E-02  3.54921000000E-01

 121 121   1   14 SI   -8.55760000000E-02 -3.27435000000E-01  3.68224000000E-01

 122 122   1   14 SI   -4.49550000000E-01 -1.92727000000E-01  4.14063000000E-01

 123 123   1   14 SI   -2.13582000000E-01 -4.57658000000E-01  4.36790000000E-01

 124 124   1   14 SI   -2.93040000000E-01 -2.72876000000E-01  4.83802000000E-01

 125 125   1   14 SI   -1.43976000000E-01 -1.09872000000E-01  4.88500000000E-01

 126 126   1   14 SI    3.41755000000E-01  2.83355000000E-01 -4.09754000000E-01

 127 127   1   14 SI   -9.38000000000E-04  6.18510000000E-02 -3.76831000000E-01

 128 128   1   14 SI    1.13215000000E-01 -1.70091000000E-01 -3.90011000000E-01

 129 129   1   14 SI   -4.55090000000E-01  4.57244000000E-01 -4.26408000000E-01

 130 130   1   14 SI   -6.99130000000E-02 -4.58765000000E-01 -3.48655000000E-01

 131 131   1   14 SI    2.53316000000E-01  2.43040000000E-02 -3.55640000000E-01

 132 132   1   14 SI   -4.87948000000E-01 -2.71966000000E-01 -3.86338000000E-01

 133 133   1   14 SI   -3.10892000000E-01 -6.04040000000E-02 -4.30445000000E-01

 134 134   1   14 SI    4.05496000000E-01  5.39760000000E-02 -1.02796000000E-01

 135 135   1   14 SI   -1.59746000000E-01 -4.69716000000E-01 -6.32900000000E-02

 136 136   1   14 SI    3.71362000000E-01 -8.70190000000E-02 -2.23857000000E-01

 137 137   1   14 SI   -2.62301000000E-01  9.76650000000E-02 -3.09148000000E-01

 138 138   1   14 SI    1.38557000000E-01 -4.19212000000E-01 -1.81824000000E-01

 139 139   1   14 SI   -1.64235000000E-01 -2.05189000000E-01 -2.89169000000E-01

 140 140   1   14 SI   -4.28428000000E-01 -2.82110000000E-01 -2.17107000000E-01

 141 141   1   14 SI    2.63821000000E-01 -3.69921000000E-01 -3.77290000000E-02

 142 142   1   14 SI   -1.94780000000E-01  1.62212000000E-01 -1.66499000000E-01

 143 143   1   14 SI   -1.51290000000E-02  2.03630000000E-01 -6.38110000000E-02

 144 144   1   14 SI    3.90857000000E-01  3.64559000000E-01 -6.44590000000E-02

 145 145   1   14 SI    3.46310000000E-02  3.22121000000E-01 -1.94266000000E-01

 146 146   1   14 SI    9.95660000000E-02 -1.49425000000E-01 -2.24271000000E-01

 147 147   1   14 SI   -3.89319000000E-01  2.47669000000E-01 -5.95730000000E-02

 148 148   1   14 SI   -4.08415000000E-01  3.51904000000E-01 -3.04745000000E-01

 149 149   1   14 SI    1.20885000000E-01 -2.01990000000E-02 -8.31680000000E-02

 150 150   1   14 SI    1.74486000000E-01  4.28148000000E-01 -3.04908000000E-01

 151 151   1   14 SI   -2.84292000000E-01 -2.58351000000E-01 -6.60420000000E-02

 152 152   1   14 SI    3.99829000000E-01  4.83913000000E-01 -2.10614000000E-01

 153 153   1   14 SI   -2.43958000000E-01 -4.99848000000E-01 -2.25203000000E-01

 NUMBER OF SYMMETRY OPERATORS         :    1
 *******************************************************************************
 * GEOMETRY EDITING - INPUT COORDINATES ARE GIVEN IN ANGSTROM         
 *******************************************************************************

 GCALCO - MAX INDICES DIRECT LATTICE VECTOR    17    17    10
 NO.OF VECTORS CREATED 6999 STARS  502 RMAX   292.40560 BOHR

 GEOMETRY FOR WAVE FUNCTION - DIMENSIONALITY OF THE SYSTEM    3
 (NON PERIODIC DIRECTION: LATTICE PARAMETER FORMALLY SET TO 500)
 *******************************************************************************
 LATTICE PARAMETERS (ANGSTROMS AND DEGREES) - BOHR = 0.5291772083 ANGSTROM
 PRIMITIVE CELL - CENTRING CODE 1/0 VOLUME=  2216.296623 - DENSITY  2.603 g/cm^3
         A              B              C           ALPHA      BETA       GAMMA 
    10.84000000    10.84000000    18.86120000    90.000000  90.000000  90.000000
 *******************************************************************************
 ATOMS IN THE ASYMMETRIC UNIT  153 - ATOMS IN THE UNIT CELL:  153
     ATOM              X/A                 Y/B                 Z/C    
 *******************************************************************************
   1 T   1 H     4.989000000000E-02  6.303300000000E-02  4.338750000000E-01
   2 T   1 H    -3.366480000000E-01  1.806540000000E-01 -4.186760000000E-01
   3 T   1 H    -2.510220000000E-01  4.811340000000E-01 -1.161100000000E-02
   4 T   1 H    -1.923260000000E-01 -1.454310000000E-01 -3.552720000000E-01
   5 T   1 H    -2.660000000000E-01 -1.811100000000E-01 -2.408150000000E-01
   6 T   8 O     2.519110000000E-01  3.792760000000E-01 -3.703430000000E-01
   7 T   8 O     1.459860000000E-01 -1.819360000000E-01 -3.082200000000E-01
   8 T   8 O     4.830460000000E-01  3.224260000000E-01 -3.906780000000E-01
   9 T   8 O    -8.869300000000E-02  4.591390000000E-01 -4.198490000000E-01
  10 T   8 O     1.188900000000E-01  7.229800000000E-02 -3.232730000000E-01
  11 T   8 O     4.758160000000E-01 -4.133310000000E-01 -4.046510000000E-01
  12 T   8 O    -9.927700000000E-02 -3.127960000000E-01 -3.493530000000E-01
  13 T   8 O     3.271690000000E-01  3.109620000000E-01 -4.934410000000E-01
  14 T   8 O    -4.398270000000E-01 -5.413000000000E-03 -4.659310000000E-01
  15 T   8 O    -1.259860000000E-01  1.224540000000E-01 -3.462970000000E-01
  16 T   8 O     3.677200000000E-02  1.363710000000E-01 -4.496880000000E-01
  17 T   8 O    -4.756780000000E-01 -2.519550000000E-01 -3.041800000000E-01
  18 T   8 O     7.738300000000E-02 -4.736800000000E-01 -3.311330000000E-01
  19 T   8 O     2.112750000000E-01 -6.522500000000E-02 -4.218200000000E-01
  20 T   8 O     1.377100000000E-01 -3.013400000000E-01 -4.271670000000E-01
  21 T   8 O    -1.837100000000E-02 -8.642200000000E-02 -4.003100000000E-01
  22 T   8 O    -3.495360000000E-01 -2.312810000000E-01 -4.272180000000E-01
  23 T   8 O     4.139290000000E-01 -1.885700000000E-01 -4.316980000000E-01
  24 T   8 O     3.204290000000E-01  1.415620000000E-01 -3.921890000000E-01
  25 T   8 O     2.535160000000E-01 -1.668070000000E-01 -1.989210000000E-01
  26 T   8 O     8.581700000000E-02  2.549350000000E-01 -1.222760000000E-01
  27 T   8 O    -1.101600000000E-01  3.246970000000E-01 -4.124500000000E-02
  28 T   8 O     3.862910000000E-01  5.179800000000E-02 -1.867700000000E-01
  29 T   8 O    -3.672610000000E-01  2.027440000000E-01 -3.150800000000E-01
  30 T   8 O     2.341620000000E-01 -4.100060000000E-01 -1.184460000000E-01
  31 T   8 O    -2.350940000000E-01  6.542900000000E-02 -2.264420000000E-01
  32 T   8 O     3.570510000000E-01  3.905840000000E-01 -1.469750000000E-01
  33 T   8 O     2.505030000000E-01 -4.818230000000E-01 -2.449910000000E-01
  34 T   8 O    -5.149800000000E-02 -1.283530000000E-01 -2.510750000000E-01
  35 T   8 O     4.431900000000E-02 -1.418180000000E-01 -4.736500000000E-02
  36 T   8 O    -1.335570000000E-01  4.767260000000E-01 -2.810870000000E-01
  37 T   8 O     4.681700000000E-01 -3.933580000000E-01 -1.900340000000E-01
  38 T   8 O    -3.195340000000E-01 -2.408400000000E-02 -3.469830000000E-01
  39 T   8 O    -4.803690000000E-01 -1.770700000000E-02 -6.415400000000E-02
  40 T   8 O    -4.138650000000E-01 -3.257560000000E-01 -3.215800000000E-02
  41 T   8 O     4.953960000000E-01 -1.524470000000E-01 -1.954640000000E-01
  42 T   8 O    -3.228470000000E-01 -2.482710000000E-01 -1.489040000000E-01
  43 T   8 O    -1.137370000000E-01  1.059640000000E-01 -1.005850000000E-01
  44 T   8 O    -4.554260000000E-01  3.824820000000E-01 -5.382700000000E-02
  45 T   8 O    -3.222910000000E-01  2.143160000000E-01 -1.330420000000E-01
  46 T   8 O     8.873000000000E-02 -2.803400000000E-02 -1.674900000000E-01
  47 T   8 O     2.718430000000E-01  9.593000000000E-03 -6.961400000000E-02
  48 T   8 O     3.847330000000E-01 -4.756490000000E-01 -2.418800000000E-02
  49 T   8 O     4.481400000000E-02  4.672070000000E-01 -1.805350000000E-01
  50 T   8 O     1.198370000000E-01  3.034820000000E-01 -2.644550000000E-01
  51 T   8 O    -1.055050000000E-01  2.666560000000E-01 -2.038630000000E-01
  52 T   8 O     3.548400000000E-01 -3.875300000000E-02 -3.059590000000E-01
  53 T   8 O     4.516110000000E-01  3.947230000000E-01 -2.730980000000E-01
  54 T   8 O    -3.344660000000E-01  3.787230000000E-01 -2.314030000000E-01
  55 T   8 O    -3.207540000000E-01 -3.827190000000E-01 -2.493650000000E-01
  56 T   8 O    -1.894130000000E-01 -4.875650000000E-01 -1.459810000000E-01
  57 T   8 O     6.723600000000E-02 -2.936940000000E-01 -1.940520000000E-01
  58 T   8 O    -3.437960000000E-01  4.473720000000E-01 -3.658950000000E-01
  59 T   8 O    -1.178600000000E-02 -4.418000000000E-01 -5.482500000000E-02
  60 T   8 O     3.218010000000E-01 -2.297970000000E-01 -4.192000000000E-02
  61 T   8 O     4.575080000000E-01  1.987600000000E-01 -8.205500000000E-02
  62 T  14 SI    1.052360000000E-01  1.133930000000E-01  2.139000000000E-02
  63 T  14 SI    2.672660000000E-01  2.695620000000E-01  2.243000000000E-02
  64 T  14 SI    1.596150000000E-01  4.213060000000E-01  8.265900000000E-02
  65 T  14 SI    4.314850000000E-01  1.636940000000E-01  8.012800000000E-02
  66 T  14 SI    3.890800000000E-02  3.003570000000E-01  1.556210000000E-01
  67 T  14 SI    3.060460000000E-01  5.874200000000E-02  1.593440000000E-01
  68 T  14 SI    1.750060000000E-01  1.819040000000E-01  2.254180000000E-01
  69 T  14 SI    4.205730000000E-01  4.146580000000E-01  2.209440000000E-01
  70 T  14 SI    7.307300000000E-02 -4.173150000000E-01  1.772000000000E-02
  71 T  14 SI    3.486010000000E-01 -1.613290000000E-01  3.628100000000E-02
  72 T  14 SI    1.824380000000E-01 -6.062600000000E-02  8.696000000000E-02
  73 T  14 SI    4.183580000000E-01 -3.207190000000E-01  1.078920000000E-01
  74 T  14 SI    5.001700000000E-02 -1.860530000000E-01  1.525160000000E-01
  75 T  14 SI    2.833400000000E-01 -4.593160000000E-01  1.585480000000E-01
  76 T  14 SI    1.656020000000E-01 -3.196920000000E-01  2.229310000000E-01
  77 T  14 SI    4.265760000000E-01 -7.790000000000E-02  2.223730000000E-01
  78 T  14 SI   -4.830150000000E-01 -2.145700000000E-02  2.603500000000E-02
  79 T  14 SI   -2.201430000000E-01  2.815580000000E-01  2.090200000000E-02
  80 T  14 SI   -3.258340000000E-01  4.451200000000E-01  7.487000000000E-02
  81 T  14 SI   -8.120300000000E-02  1.618550000000E-01  8.880900000000E-02
  82 T  14 SI   -4.475410000000E-01  3.061100000000E-01  1.437030000000E-01
  83 T  14 SI   -2.091020000000E-01  3.158900000000E-02  1.525590000000E-01
  84 T  14 SI   -3.267130000000E-01  1.790700000000E-01  2.158240000000E-01
  85 T  14 SI   -8.044900000000E-02  4.347880000000E-01  2.202680000000E-01
  86 T  14 SI   -4.772780000000E-01 -4.250210000000E-01  2.133900000000E-02
  87 T  14 SI   -1.123380000000E-01 -1.462520000000E-01 -1.433000000000E-02
  88 T  14 SI   -3.000420000000E-01 -1.063640000000E-01  7.020900000000E-02
  89 T  14 SI   -7.442900000000E-02 -2.956890000000E-01  7.610900000000E-02
  90 T  14 SI   -4.357130000000E-01 -1.931180000000E-01  1.562540000000E-01
  91 T  14 SI   -1.944610000000E-01 -4.337300000000E-01  1.457840000000E-01
  92 T  14 SI   -3.186300000000E-01 -3.219210000000E-01  2.241880000000E-01
  93 T  14 SI   -7.353100000000E-02 -7.245300000000E-02  2.276170000000E-01
  94 T  14 SI    5.531500000000E-02  5.418600000000E-02  2.949230000000E-01
  95 T  14 SI    3.007150000000E-01  2.990980000000E-01  3.002050000000E-01
  96 T  14 SI    4.226300000000E-02 -4.428350000000E-01  2.939590000000E-01
  97 T  14 SI    2.957610000000E-01 -1.987370000000E-01  2.908160000000E-01
  98 T  14 SI   -4.572230000000E-01  5.850700000000E-02  2.860070000000E-01
  99 T  14 SI   -1.997070000000E-01  3.025360000000E-01  2.880530000000E-01
 100 T  14 SI   -4.510830000000E-01 -4.541360000000E-01  2.839850000000E-01
 101 T  14 SI   -1.989650000000E-01 -1.975000000000E-01  2.964950000000E-01
 102 T  14 SI    1.783640000000E-01  4.408460000000E-01  3.629420000000E-01
 103 T  14 SI    4.244640000000E-01  1.635930000000E-01  3.679930000000E-01
 104 T  14 SI    3.776700000000E-02  3.328530000000E-01  4.323390000000E-01
 105 T  14 SI    2.980440000000E-01  3.919500000000E-02  4.440520000000E-01
 106 T  14 SI    1.211980000000E-01  1.576720000000E-01  4.788340000000E-01
 107 T  14 SI    4.354070000000E-01  4.080100000000E-01  4.692940000000E-01
 108 T  14 SI    1.753420000000E-01 -7.556700000000E-02  3.663170000000E-01
 109 T  14 SI    4.272860000000E-01 -3.260480000000E-01  3.525040000000E-01
 110 T  14 SI    3.821600000000E-02 -1.962060000000E-01  4.334410000000E-01
 111 T  14 SI    3.073480000000E-01 -4.337850000000E-01  4.323900000000E-01
 112 T  14 SI    1.327200000000E-01 -3.589450000000E-01  4.910030000000E-01
 113 T  14 SI    4.439500000000E-01 -9.032400000000E-02 -4.972800000000E-01
 114 T  14 SI   -3.295510000000E-01  4.246890000000E-01  3.563250000000E-01
 115 T  14 SI   -6.689300000000E-02  1.854530000000E-01  3.608560000000E-01
 116 T  14 SI   -4.207090000000E-01  2.759840000000E-01  4.251420000000E-01
 117 T  14 SI   -2.021080000000E-01  7.109000000000E-02  4.293720000000E-01
 118 T  14 SI   -2.775030000000E-01  2.144580000000E-01 -4.858640000000E-01
 119 T  14 SI   -1.302530000000E-01  3.868150000000E-01 -4.933880000000E-01
 120 T  14 SI   -3.238260000000E-01 -5.358500000000E-02  3.549210000000E-01
 121 T  14 SI   -8.557600000000E-02 -3.274350000000E-01  3.682240000000E-01
 122 T  14 SI   -4.495500000000E-01 -1.927270000000E-01  4.140630000000E-01
 123 T  14 SI   -2.135820000000E-01 -4.576580000000E-01  4.367900000000E-01
 124 T  14 SI   -2.930400000000E-01 -2.728760000000E-01  4.838020000000E-01
 125 T  14 SI   -1.439760000000E-01 -1.098720000000E-01  4.885000000000E-01
 126 T  14 SI    3.417550000000E-01  2.833550000000E-01 -4.097540000000E-01
 127 T  14 SI   -9.380000000000E-04  6.185100000000E-02 -3.768310000000E-01
 128 T  14 SI    1.132150000000E-01 -1.700910000000E-01 -3.900110000000E-01
 129 T  14 SI   -4.550900000000E-01  4.572440000000E-01 -4.264080000000E-01
 130 T  14 SI   -6.991300000000E-02 -4.587650000000E-01 -3.486550000000E-01
 131 T  14 SI    2.533160000000E-01  2.430400000000E-02 -3.556400000000E-01
 132 T  14 SI   -4.879480000000E-01 -2.719660000000E-01 -3.863380000000E-01
 133 T  14 SI   -3.108920000000E-01 -6.040400000000E-02 -4.304450000000E-01
 134 T  14 SI    4.054960000000E-01  5.397600000000E-02 -1.027960000000E-01
 135 T  14 SI   -1.597460000000E-01 -4.697160000000E-01 -6.329000000000E-02
 136 T  14 SI    3.713620000000E-01 -8.701900000000E-02 -2.238570000000E-01
 137 T  14 SI   -2.623010000000E-01  9.766500000000E-02 -3.091480000000E-01
 138 T  14 SI    1.385570000000E-01 -4.192120000000E-01 -1.818240000000E-01
 139 T  14 SI   -1.642350000000E-01 -2.051890000000E-01 -2.891690000000E-01
 140 T  14 SI   -4.284280000000E-01 -2.821100000000E-01 -2.171070000000E-01
 141 T  14 SI    2.638210000000E-01 -3.699210000000E-01 -3.772900000000E-02
 142 T  14 SI   -1.947800000000E-01  1.622120000000E-01 -1.664990000000E-01
 143 T  14 SI   -1.512900000000E-02  2.036300000000E-01 -6.381100000000E-02
 144 T  14 SI    3.908570000000E-01  3.645590000000E-01 -6.445900000000E-02
 145 T  14 SI    3.463100000000E-02  3.221210000000E-01 -1.942660000000E-01
 146 T  14 SI    9.956600000000E-02 -1.494250000000E-01 -2.242710000000E-01
 147 T  14 SI   -3.893190000000E-01  2.476690000000E-01 -5.957300000000E-02
 148 T  14 SI   -4.084150000000E-01  3.519040000000E-01 -3.047450000000E-01
 149 T  14 SI    1.208850000000E-01 -2.019900000000E-02 -8.316800000000E-02
 150 T  14 SI    1.744860000000E-01  4.281480000000E-01 -3.049080000000E-01
 151 T  14 SI   -2.842920000000E-01 -2.583510000000E-01 -6.604200000000E-02
 152 T  14 SI    3.998290000000E-01  4.839130000000E-01 -2.106140000000E-01
 153 T  14 SI   -2.439580000000E-01 -4.998480000000E-01 -2.252030000000E-01

 T = ATOM BELONGING TO THE ASYMMETRIC UNIT

 ****   1 SYMMOPS - TRANSLATORS IN FRACTIONAL UNITS
  V INV                   ROTATION MATRICES                       TRANSLATOR
  1  1  1.00  0.00  0.00  0.00  1.00  0.00  0.00  0.00  1.00    0.00  0.00  0.00

 DIRECT LATTICE VECTORS CARTESIAN COMPONENTS (ANGSTROM)
          X                    Y                    Z
   0.108400000000E+02   0.663758565138E-15   0.000000000000E+00
   0.000000000000E+00   0.108400000000E+02   0.000000000000E+00
   0.115491541040E-14   0.115491541040E-14   0.188612000000E+02


 CARTESIAN COORDINATES - PRIMITIVE CELL
 *******************************************************************************
 *      ATOM          X(ANGSTROM)         Y(ANGSTROM)         Z(ANGSTROM)
 *******************************************************************************
   1     1 H     5.408076000000E-01  6.832777200000E-01  8.183403150000E+00
   2     1 H    -3.649264320000E+00  1.958289360000E+00 -7.896731771200E+00
   3     1 H    -2.721078480000E+00  5.215492560000E+00 -2.189973932000E-01
   4     1 H    -2.084813840000E+00 -1.576472040000E+00 -6.700856246400E+00
   5     1 H    -2.883440000000E+00 -1.963232400000E+00 -4.542059878000E+00
   6     8 O     2.730715240000E+00  4.111351840000E+00 -6.985113391600E+00
   7     8 O     1.582488240000E+00 -1.972186240000E+00 -5.813399064000E+00
   8     8 O     5.236218640000E+00  3.495097840000E+00 -7.368655893600E+00
   9     8 O    -9.614321200000E-01  4.977066760000E+00 -7.918855958800E+00
  10     8 O     1.288767600000E+00  7.837103200000E-01 -6.097316707600E+00
  11     8 O     5.157845440000E+00 -4.480508040000E+00 -7.632203441200E+00
  12     8 O    -1.076162680000E+00 -3.390708640000E+00 -6.589216803600E+00
  13     8 O     3.546511960000E+00  3.370828080000E+00 -9.306889389200E+00
  14     8 O    -4.767724680000E+00 -5.867692000000E-02 -8.788017777200E+00
  15     8 O    -1.365688240000E+00  1.327401360000E+00 -6.531576976400E+00
  16     8 O     3.986084800000E-01  1.478261640000E+00 -8.481655305600E+00
  17     8 O    -5.156349520000E+00 -2.731192200000E+00 -5.737199816000E+00
  18     8 O     8.388317200000E-01 -5.134691200000E+00 -6.245565739600E+00
  19     8 O     2.290221000000E+00 -7.070390000000E-01 -7.956031384000E+00
  20     8 O     1.492776400000E+00 -3.266525600000E+00 -8.056882220400E+00
  21     8 O    -1.991416400000E-01 -9.368144800000E-01 -7.550326972000E+00
  22     8 O    -3.788970240000E+00 -2.507086040000E+00 -8.057844141600E+00
  23     8 O     4.486990360000E+00 -2.044098800000E+00 -8.142342317600E+00
  24     8 O     3.473450360000E+00  1.534532080000E+00 -7.397155166800E+00
  25     8 O     2.748113440000E+00 -1.808187880000E+00 -3.751888765200E+00
  26     8 O     9.302562800000E-01  2.763495400000E+00 -2.306272091200E+00
  27     8 O    -1.194134400000E+00  3.519715480000E+00 -7.779301940000E-01
  28     8 O     4.187394440000E+00  5.614903200000E-01 -3.522706324000E+00
  29     8 O    -3.981109240000E+00  2.197744960000E+00 -5.942786896000E+00
  30     8 O     2.538316080000E+00 -4.444465040000E+00 -2.234033695200E+00
  31     8 O    -2.548418960000E+00  7.092503600000E-01 -4.270967850400E+00
  32     8 O     3.870432840000E+00  4.233930560000E+00 -2.772124870000E+00
  33     8 O     2.715452520000E+00 -5.222961320000E+00 -4.620824249200E+00
  34     8 O    -5.582383200000E-01 -1.391346520000E+00 -4.735575790000E+00
  35     8 O     4.804179600000E-01 -1.537307120000E+00 -8.933607380000E-01
  36     8 O    -1.447757880000E+00  5.167709840000E+00 -5.301638124400E+00
  37     8 O     5.074962800000E+00 -4.264000720000E+00 -3.584269280800E+00
  38     8 O    -3.463748560000E+00 -2.610705600000E-01 -6.544515759600E+00
  39     8 O    -5.207199960000E+00 -1.919438800000E-01 -1.210021424800E+00
  40     8 O    -4.486296600000E+00 -3.531195040000E+00 -6.065384696000E-01
  41     8 O     5.370092640000E+00 -1.652525480000E+00 -3.686685596800E+00
  42     8 O    -3.499661480000E+00 -2.691257640000E+00 -2.808508124800E+00
  43     8 O    -1.232909080000E+00  1.148649760000E+00 -1.897153802000E+00
  44     8 O    -4.936817840000E+00  4.146104880000E+00 -1.015241812400E+00
  45     8 O    -3.493634440000E+00  2.323185440000E+00 -2.509331770400E+00
  46     8 O     9.618332000000E-01 -3.038885600000E-01 -3.159062388000E+00
  47     8 O     2.946778120000E+00  1.039881200000E-01 -1.313003576800E+00
  48     8 O     4.170505720000E+00 -5.156035160000E+00 -4.562147056000E-01
  49     8 O     4.857837600000E-01  5.064523880000E+00 -3.405106742000E+00
  50     8 O     1.299033080000E+00  3.289744880000E+00 -4.987938646000E+00
  51     8 O    -1.143674200000E+00  2.890551040000E+00 -3.845100815600E+00
  52     8 O     3.846465600000E+00 -4.200825200000E-01 -5.770753890800E+00
  53     8 O     4.895463240000E+00  4.278797320000E+00 -5.150955997600E+00
  54     8 O    -3.625611440000E+00  4.105357320000E+00 -4.364538263600E+00
  55     8 O    -3.476973360000E+00 -4.148673960000E+00 -4.703323138000E+00
  56     8 O    -2.053236920000E+00 -5.285204600000E+00 -2.753376837200E+00
  57     8 O     7.288382400000E-01 -3.183642960000E+00 -3.660053582400E+00
  58     8 O    -3.726748640000E+00  4.849512480000E+00 -6.901218774000E+00
  59     8 O    -1.277602400000E-01 -4.789112000000E+00 -1.034065290000E+00
  60     8 O     3.488322840000E+00 -2.490999480000E+00 -7.906615040000E-01
  61     8 O     4.959386720000E+00  2.154558400000E+00 -1.547655766000E+00
  62    14 SI    1.140758240000E+00  1.229180120000E+00  4.034410680000E-01
  63    14 SI    2.897163440000E+00  2.922052080000E+00  4.230567160000E-01
  64    14 SI    1.730226600000E+00  4.566957040000E+00  1.559047930800E+00
  65    14 SI    4.677297400000E+00  1.774442960000E+00  1.511310233600E+00
  66    14 SI    4.217627200000E-01  3.255869880000E+00  2.935198805200E+00
  67    14 SI    3.317538640000E+00  6.367632800000E-01  3.005419052800E+00
  68    14 SI    1.897065040000E+00  1.971839360000E+00  4.251653981600E+00
  69    14 SI    4.559011320000E+00  4.494892720000E+00  4.167268972800E+00
  70    14 SI    7.921113200000E-01 -4.523694600000E+00  3.342204640000E-01
  71    14 SI    3.778834840000E+00 -1.748806360000E+00  6.843031972000E-01
  72    14 SI    1.977627920000E+00 -6.571858400000E-01  1.640169952000E+00
  73    14 SI    4.535000720000E+00 -3.476593960000E+00  2.034972590400E+00
  74    14 SI    5.421842800000E-01 -2.016814520000E+00  2.876634779200E+00
  75    14 SI    3.071405600000E+00 -4.978985440000E+00  2.990405537600E+00
  76    14 SI    1.795125680000E+00 -3.465461280000E+00  4.204746177200E+00
  77    14 SI    4.624083840000E+00 -8.444360000000E-01  4.194221627600E+00
  78    14 SI   -5.235882600000E+00 -2.325938800000E-01  4.910513420000E-01
  79    14 SI   -2.386350120000E+00  3.052088720000E+00  3.942368024000E-01
  80    14 SI   -3.532040560000E+00  4.825100800000E+00  1.412138044000E+00
  81    14 SI   -8.802405200000E-01  1.754508200000E+00  1.675044310800E+00
  82    14 SI   -4.851344440000E+00  3.318232400000E+00  2.710411023600E+00
  83    14 SI   -2.266665680000E+00  3.424247600000E-01  2.877445810800E+00
  84    14 SI   -3.541568920000E+00  1.941118800000E+00  4.070699628800E+00
  85    14 SI   -8.720671600000E-01  4.713101920000E+00  4.154518801600E+00
  86    14 SI   -5.173693520000E+00 -4.607227640000E+00  4.024791468000E-01
  87    14 SI   -1.217743920000E+00 -1.585371680000E+00 -2.702809960000E-01
  88    14 SI   -3.252455280000E+00 -1.152985760000E+00  1.324225990800E+00
  89    14 SI   -8.068103600000E-01 -3.205268760000E+00  1.435507070800E+00
  90    14 SI   -4.723128920000E+00 -2.093399120000E+00  2.947137944800E+00
  91    14 SI   -2.107957240000E+00 -4.701633200000E+00  2.749661180800E+00
  92    14 SI   -3.453949200000E+00 -3.489623640000E+00  4.228454705600E+00
  93    14 SI   -7.970760400000E-01 -7.853905200000E-01  4.293129760400E+00
  94    14 SI    5.996146000000E-01  5.873762400000E-01  5.562601687600E+00
  95    14 SI    3.259750600000E+00  3.242222320000E+00  5.662226546000E+00
  96    14 SI    4.581309200000E-01 -4.800331400000E+00  5.544419490800E+00
  97    14 SI    3.206049240000E+00 -2.154309080000E+00  5.485138739200E+00
  98    14 SI   -4.956297320000E+00  6.342158800000E-01  5.394435228400E+00
  99    14 SI   -2.164823880000E+00  3.279490240000E+00  5.433025243600E+00
 100    14 SI   -4.889739720000E+00 -4.922834240000E+00  5.356297882000E+00
 101    14 SI   -2.156780600000E+00 -2.140900000000E+00  5.592251494000E+00
 102    14 SI    1.933465760000E+00  4.778770640000E+00  6.845521650400E+00
 103    14 SI    4.601189760000E+00  1.773348120000E+00  6.940789571600E+00
 104    14 SI    4.093942800000E-01  3.608126520000E+00  8.154432346800E+00
 105    14 SI    3.230796960000E+00  4.248738000000E-01  8.375353582400E+00
 106    14 SI    1.313786320000E+00  1.709164480000E+00  9.031383840800E+00
 107    14 SI    4.719811880000E+00  4.422828400000E+00  8.851447992800E+00
 108    14 SI    1.900707280000E+00 -8.191462800000E-01  6.909178200400E+00
 109    14 SI    4.631780240000E+00 -3.534360320000E+00  6.648648444800E+00
 110    14 SI    4.142614400000E-01 -2.126873040000E+00  8.175217389200E+00
 111    14 SI    3.331652320000E+00 -4.702229400000E+00  8.155394268000E+00
 112    14 SI    1.438684800000E+00 -3.890963800000E+00  9.260905783600E+00
 113    14 SI    4.812418000000E+00 -9.791121600000E-01 -9.379297536000E+00
 114    14 SI   -3.572332840000E+00  4.603628760000E+00  6.720717090000E+00
 115    14 SI   -7.251201200000E-01  2.010310520000E+00  6.806177187200E+00
 116    14 SI   -4.560485560000E+00  2.991666560000E+00  8.018688290400E+00
 117    14 SI   -2.190850720000E+00  7.706156000000E-01  8.098471166400E+00
 118    14 SI   -3.008132520000E+00  2.324724720000E+00 -9.163978076800E+00
 119    14 SI   -1.411942520000E+00  4.193074600000E+00 -9.305889745600E+00
 120    14 SI   -3.510273840000E+00 -5.808614000000E-01  6.694235965200E+00
 121    14 SI   -9.276438400000E-01 -3.549395400000E+00  6.945146508800E+00
 122    14 SI   -4.873122000000E+00 -2.089160680000E+00  7.809725055600E+00
 123    14 SI   -2.315228880000E+00 -4.961012720000E+00  8.238383548000E+00
 124    14 SI   -3.176553600000E+00 -2.957975840000E+00  9.125086282400E+00
 125    14 SI   -1.560699840000E+00 -1.191012480000E+00  9.213696200000E+00
 126    14 SI    3.704624200000E+00  3.071568200000E+00 -7.728452144800E+00
 127    14 SI   -1.016792000000E-02  6.704648400000E-01 -7.107484857200E+00
 128    14 SI    1.227250600000E+00 -1.843786440000E+00 -7.356075473200E+00
 129    14 SI   -4.933175600000E+00  4.956524960000E+00 -8.042566569600E+00
 130    14 SI   -7.578569200000E-01 -4.973012600000E+00 -6.576051686000E+00
 131    14 SI    2.745945440000E+00  2.634553600000E-01 -6.707797168000E+00
 132    14 SI   -5.289356320000E+00 -2.948111440000E+00 -7.286798285600E+00
 133    14 SI   -3.370069280000E+00 -6.547793600000E-01 -8.118709234000E+00
 134    14 SI    4.395576640000E+00  5.850998400000E-01 -1.938855915200E+00
 135    14 SI   -1.731646640000E+00 -5.091721440000E+00 -1.193725348000E+00
 136    14 SI    4.025564080000E+00 -9.432859600000E-01 -4.222211648400E+00
 137    14 SI   -2.843342840000E+00  1.058688600000E+00 -5.830902257600E+00
 138    14 SI    1.501957880000E+00 -4.544258080000E+00 -3.429418828800E+00
 139    14 SI   -1.780307400000E+00 -2.224248760000E+00 -5.454074342800E+00
 140    14 SI   -4.644159520000E+00 -3.058072400000E+00 -4.094898548400E+00
 141    14 SI    2.859819640000E+00 -4.009943640000E+00 -7.116142148000E-01
 142    14 SI   -2.111415200000E+00  1.758378080000E+00 -3.140370938800E+00
 143    14 SI   -1.639983600000E-01  2.207349200000E+00 -1.203552033200E+00
 144    14 SI    4.236889880000E+00  3.951819560000E+00 -1.215774090800E+00
 145    14 SI    3.754000400000E-01  3.491791640000E+00 -3.664089879200E+00
 146    14 SI    1.079295440000E+00 -1.619767000000E+00 -4.230020185200E+00
 147    14 SI   -4.220217960000E+00  2.684731960000E+00 -1.123618267600E+00
 148    14 SI   -4.427218600000E+00  3.814639360000E+00 -5.747856394000E+00
 149    14 SI    1.310393400000E+00 -2.189571600000E-01 -1.568648281600E+00
 150    14 SI    1.891428240000E+00  4.641124320000E+00 -5.750930769600E+00
 151    14 SI   -3.081725280000E+00 -2.800524840000E+00 -1.245631370400E+00
 152    14 SI    4.334146360000E+00  5.245616920000E+00 -3.972432776800E+00
 153    14 SI   -2.644504720000E+00 -5.418352320000E+00 -4.247598823600E+00

 *******************************************************************************
 LOCAL ATOMIC FUNCTIONS BASIS SET
 *******************************************************************************
   ATOM  X(AU)  Y(AU)  Z(AU)    NO. TYPE  EXPONENT  S COEF   P COEF   D/F/G COEF
 *******************************************************************************
   1 H   1.022  1.291 15.464
                                  1 S  
                                         1.873E+01 3.349E-02 0.000E+00 0.000E+00
                                         2.825E+00 2.347E-01 0.000E+00 0.000E+00
                                         6.401E-01 8.138E-01 0.000E+00 0.000E+00
                                  2 S  
                                         1.613E-01 1.000E+00 0.000E+00 0.000E+00
                             3-   5 P  
                                         1.100E+00 0.000E+00 1.000E+00 0.000E+00
   2 H  -6.896  3.701-14.923
   3 H  -5.142  9.856 -0.414
   4 H  -3.940 -2.979-12.663
   5 H  -5.449 -3.710 -8.583
   6 O   5.160  7.769-13.200
                                 26 S  
                                         8.020E+03 1.080E-03 0.000E+00 0.000E+00
                                         1.338E+03 8.040E-03 0.000E+00 0.000E+00
                                         2.554E+02 5.324E-02 0.000E+00 0.000E+00
                                         6.922E+01 1.681E-01 0.000E+00 0.000E+00
                                         2.390E+01 3.581E-01 0.000E+00 0.000E+00
                                         9.264E+00 3.855E-01 0.000E+00 0.000E+00
                                         3.851E+00 1.468E-01 0.000E+00 0.000E+00
                                         1.212E+00 7.280E-02 0.000E+00 0.000E+00
                            27-  30 SP 
                                         4.943E+01-8.830E-03 9.580E-03 0.000E+00
                                         1.047E+01-9.150E-02 6.960E-02 0.000E+00
                                         3.235E+00-4.020E-02 2.065E-01 0.000E+00
                                         1.217E+00 3.790E-01 3.470E-01 0.000E+00
                            31-  34 SP 
                                         4.763E-01 1.000E+00 1.000E+00 0.000E+00
                            35-  38 SP 
                                         1.900E-01 1.000E+00 1.000E+00 0.000E+00
   7 O   2.990 -3.727-10.986
   8 O   9.895  6.605-13.925
   9 O  -1.817  9.405-14.964
  10 O   2.435  1.481-11.522
  11 O   9.747 -8.467-14.423
  12 O  -2.034 -6.408-12.452
  13 O   6.702  6.370-17.587
  14 O  -9.010 -0.111-16.607
  15 O  -2.581  2.508-12.343
  16 O   0.753  2.794-16.028
  17 O  -9.744 -5.161-10.842
  18 O   1.585 -9.703-11.802
  19 O   4.328 -1.336-15.035
  20 O   2.821 -6.173-15.225
  21 O  -0.376 -1.770-14.268
  22 O  -7.160 -4.738-15.227
  23 O   8.479 -3.863-15.387
  24 O   6.564  2.900-13.979
  25 O   5.193 -3.417 -7.090
  26 O   1.758  5.222 -4.358
  27 O  -2.257  6.651 -1.470
  28 O   7.913  1.061 -6.657
  29 O  -7.523  4.153-11.230
  30 O   4.797 -8.399 -4.222
  31 O  -4.816  1.340 -8.071
  32 O   7.314  8.001 -5.239
  33 O   5.131 -9.870 -8.732
  34 O  -1.055 -2.629 -8.949
  35 O   0.908 -2.905 -1.688
  36 O  -2.736  9.766-10.019
  37 O   9.590 -8.058 -6.773
  38 O  -6.546 -0.493-12.367
  39 O  -9.840 -0.363 -2.287
  40 O  -8.478 -6.673 -1.146
  41 O  10.148 -3.123 -6.967
  42 O  -6.613 -5.086 -5.307
  43 O  -2.330  2.171 -3.585
  44 O  -9.329  7.835 -1.919
  45 O  -6.602  4.390 -4.742
  46 O   1.818 -0.574 -5.970
  47 O   5.569  0.197 -2.481
  48 O   7.881 -9.743 -0.862
  49 O   0.918  9.571 -6.435
  50 O   2.455  6.217 -9.426
  51 O  -2.161  5.462 -7.266
  52 O   7.269 -0.794-10.905
  53 O   9.251  8.086 -9.734
  54 O  -6.851  7.758 -8.248
  55 O  -6.571 -7.840 -8.888
  56 O  -3.880 -9.988 -5.203
  57 O   1.377 -6.016 -6.916
  58 O  -7.043  9.164-13.041
  59 O  -0.241 -9.050 -1.954
  60 O   6.592 -4.707 -1.494
  61 O   9.372  4.072 -2.925
  62 SI  2.156  2.323  0.762
                                754 S  
                                         8.765E+04 2.370E-04 0.000E+00 0.000E+00
                                         1.285E+04 1.920E-03 0.000E+00 0.000E+00
                                         2.786E+03 1.090E-02 0.000E+00 0.000E+00
                                         7.280E+02 4.960E-02 0.000E+00 0.000E+00
                                         2.195E+02 1.668E-01 0.000E+00 0.000E+00
                                         7.590E+01 3.630E-01 0.000E+00 0.000E+00
                                         2.946E+01 4.051E-01 0.000E+00 0.000E+00
                                         1.199E+01 1.504E-01 0.000E+00 0.000E+00
                           755- 758 SP 
                                         1.660E+02-8.840E-03 9.090E-03 0.000E+00
                                         3.937E+01-8.590E-02 6.010E-02 0.000E+00
                                         1.271E+01-7.120E-02 1.952E-01 0.000E+00
                                         4.718E+00 4.147E-01 3.384E-01 0.000E+00
                                         1.848E+00 6.168E-01 3.006E-01 0.000E+00
                                         7.365E-01 1.154E-01 6.480E-02 0.000E+00
                           759- 762 SP 
                                         4.175E+00-1.990E-02-8.700E-03 0.000E+00
                                         1.447E+00-1.864E-01-4.380E-03 0.000E+00
                                         5.023E-01 9.670E-02 2.207E-01 0.000E+00
                           763- 766 SP 
                                         3.220E-01 1.000E+00 1.000E+00 0.000E+00
                           767- 770 SP 
                                         1.300E-01 1.000E+00 1.000E+00 0.000E+00
                           771- 775 D  
                                         6.000E-01 0.000E+00 0.000E+00 1.000E+00
  63 SI  5.475  5.522  0.799
  64 SI  3.270  8.630  2.946
  65 SI  8.839  3.353  2.856
  66 SI  0.797  6.153  5.547
  67 SI  6.269  1.203  5.679
  68 SI  3.585  3.726  8.034
  69 SI  8.615  8.494  7.875
  70 SI  1.497 -8.549  0.632
  71 SI  7.141 -3.305  1.293
  72 SI  3.737 -1.242  3.099
  73 SI  8.570 -6.570  3.846
  74 SI  1.025 -3.811  5.436
  75 SI  5.804 -9.409  5.651
  76 SI  3.392 -6.549  7.946
  77 SI  8.738 -1.596  7.926
  78 SI -9.894 -0.440  0.928
  79 SI -4.510  5.768  0.745
  80 SI -6.675  9.118  2.669
  81 SI -1.663  3.316  3.165
  82 SI -9.168  6.271  5.122
  83 SI -4.283  0.647  5.438
  84 SI -6.693  3.668  7.693
  85 SI -1.648  8.906  7.851
  86 SI -9.777 -8.706  0.761
  87 SI -2.301 -2.996 -0.511
  88 SI -6.146 -2.179  2.502
  89 SI -1.525 -6.057  2.713
  90 SI -8.925 -3.956  5.569
  91 SI -3.983 -8.885  5.196
  92 SI -6.527 -6.594  7.991
  93 SI -1.506 -1.484  8.113
  94 SI  1.133  1.110 10.512
  95 SI  6.160  6.127 10.700
  96 SI  0.866 -9.071 10.477
  97 SI  6.059 -4.071 10.365
  98 SI -9.366  1.198 10.194
  99 SI -4.091  6.197 10.267
 100 SI -9.240 -9.303 10.122
 101 SI -4.076 -4.046 10.568
 102 SI  3.654  9.031 12.936
 103 SI  8.695  3.351 13.116
 104 SI  0.774  6.818 15.410
 105 SI  6.105  0.803 15.827
 106 SI  2.483  3.230 17.067
 107 SI  8.919  8.358 16.727
 108 SI  3.592 -1.548 13.056
 109 SI  8.753 -6.679 12.564
 110 SI  0.783 -4.019 15.449
 111 SI  6.296 -8.886 15.411
 112 SI  2.719 -7.353 17.501
 113 SI  9.094 -1.850-17.724
 114 SI -6.751  8.700 12.700
 115 SI -1.370  3.799 12.862
 116 SI -8.618  5.653 15.153
 117 SI -4.140  1.456 15.304
 118 SI -5.685  4.393-17.317
 119 SI -2.668  7.924-17.586
 120 SI -6.633 -1.098 12.650
 121 SI -1.753 -6.707 13.124
 122 SI -9.209 -3.948 14.758
 123 SI -4.375 -9.375 15.568
 124 SI -6.003 -5.590 17.244
 125 SI -2.949 -2.251 17.411
 126 SI  7.001  5.804-14.605
 127 SI -0.019  1.267-13.431
 128 SI  2.319 -3.484-13.901
 129 SI -9.322  9.366-15.198
 130 SI -1.432 -9.398-12.427
 131 SI  5.189  0.498-12.676
 132 SI -9.995 -5.571-13.770
 133 SI -6.369 -1.237-15.342
 134 SI  8.306  1.106 -3.664
 135 SI -3.272 -9.622 -2.256
 136 SI  7.607 -1.783 -7.979
 137 SI -5.373  2.001-11.019
 138 SI  2.838 -8.587 -6.481
 139 SI -3.364 -4.203-10.307
 140 SI -8.776 -5.779 -7.738
 141 SI  5.404 -7.578 -1.345
 142 SI -3.990  3.323 -5.934
 143 SI -0.310  4.171 -2.274
 144 SI  8.007  7.468 -2.297
 145 SI  0.709  6.599 -6.924
 146 SI  2.040 -3.061 -7.994
 147 SI -7.975  5.073 -2.123
 148 SI -8.366  7.209-10.862
 149 SI  2.476 -0.414 -2.964
 150 SI  3.574  8.770-10.868
 151 SI -5.824 -5.292 -2.354
 152 SI  8.190  9.913 -7.507
 153 SI -4.997-10.239 -8.027
 INFORMATION **** TOLINTEG **** COULOMB AND EXCHANGE SERIES TOLERANCES MODIFIED
 INFORMATION **** READM2 **** FULL DIRECT SCF (MONO AND BIEL INT) SELECTED
 INFORMATION **** SMEAR **** FERMI SMEARING ACTIVE
 FERMI SMEARING - TEMPERATURE SMEARING OF FERMI SURFACE  0.1000E-12
 INFORMATION **** MAXCYCLE **** MAX NUMBER OF SCF CYCLES SET TO         150

 MODIFIED BROYDEN MIXING OF THE FOCK MATRIX
 WO PARAMETER(D.D. Johnson, PRB38, 12807,(1988)             1.0000E-04
 % OF FOCK/KS MATRICES MIXING WHEN BROYDEN METHOD IS ON             90
 NUMBER OF SCF ITERATIONS AFTER WHICH BROYDEN METHOD IS ACTIVE      80
 INFORMATION **** TOLDEE **** SCF TOL ON TOTAL ENERGY SET TO           7
 *******************************************************************************
 N. OF ATOMS PER CELL      153  COULOMB OVERLAP TOL         (T1) 10** -8
 NUMBER OF SHELLS          791  COULOMB PENETRATION TOL     (T2) 10** -8
 NUMBER OF AO             2777  EXCHANGE OVERLAP TOL        (T3) 10** -8
 N. OF ELECTRONS PER CELL 1741  EXCHANGE PSEUDO OVP (F(G))  (T4) 10** -8
 CORE ELECTRONS PER CELL  1032  EXCHANGE PSEUDO OVP (P(G))  (T5) 10**-16
 N. OF SYMMETRY OPERATORS    1  POLE ORDER IN MONO ZONE                4
 *******************************************************************************
 TYPE OF CALCULATION :  UNRESTRICTED OPEN SHELL
 KOHN-SHAM HAMILTONIAN

 (EXCHANGE)[CORRELATION] FUNCTIONAL:(BECKE)[LEE-YANG-PARR]

 NON-LOCAL WEIGHTING FACTOR (EXCHANGE) =           0.9000
 NON-LOCAL WEIGHTING FACTOR [CORRELATION] =        0.8100

 HYBRID EXCHANGE - PERCENTAGE OF FOCK EXCHANGE     5.0000

 SPIN POLARIZED DFT SELECTED

 CAPPA:IS1  2;IS2  2;IS3  2; K PTS MONK NET    8; SYMMOPS: K SPACE  2;G SPACE  1

 *******************************************************************************
 MAX NUMBER OF SCF CYCLES     150  CONVERGENCE ON DELTAP        10**-17
 WEIGHT OF F(I) IN F(I+1)      92% CONVERGENCE ON ENERGY        10**- 7
 SHRINK. FACT.(MONKH.)    2  2  2  NUMBER OF K POINTS IN THE IBZ      8
 SHRINKING FACTOR(GILAT NET)    2  NUMBER OF K POINTS(GILAT NET)      8
 *******************************************************************************
 *** K POINTS COORDINATES (OBLIQUE COORDINATES IN UNITS OF IS =  2)
   1-R(  0  0  0)   2-R(  1  0  0)   3-R(  0  1  0)   4-R(  1  1  0)
   5-R(  0  0  1)   6-R(  1  0  1)   7-R(  0  1  1)   8-R(  1  1  1)

 DIRECT LATTICE VECTORS COMPON. (A.U.)     RECIP. LATTICE VECTORS COMPON. (A.U.) 
        X            Y            Z              X            Y            Z
   20.4846313    0.0000000    0.0000000      0.3067268    0.0000000    0.0000000
    0.0000000   20.4846313    0.0000000      0.0000000    0.3067268    0.0000000
    0.0000000    0.0000000   35.6425026      0.0000000    0.0000000    0.1762835

 DISK SPACE FOR EIGENVECTORS (FTN 10)   61693832 REALS

 SYMMETRY ADAPTION OF THE BLOCH FUNCTIONS DISABLED
 TTTTTTTTTTTTTTTTTTTTTTTTTTTTTT gordsh1     TELAPSE        3.86 TCPU        0.66

 DIMENSIONS  P(G)= 7208509 F(G)= 1287010 P(G),F(G) (IRR) 3612748
 MAX G-VECTOR INDEX FOR 1- AND 2-ELECTRON INTEGRALS  65

 TTTTTTTTTTTTTTTTTTTTTTTTTTTTTT INPUT       TELAPSE        4.32 TCPU        1.12

 NEIGHBORS OF THE NON-EQUIVALENT ATOMS

 N = NUMBER OF NEIGHBORS AT DISTANCE R
    ATOM  N     R/ANG      R/AU   NEIGHBORS (ATOM LABELS AND CELL INDICES)
   1 H    1     1.5392     2.9086 106 SI   0 0 0
   1 H    1     2.2935     4.3342 115 SI   0 0 0
   1 H    1     2.3399     4.4218  16 O    0 0 1
   1 H    1     2.3938     4.5236 108 SI   0 0 0
   1 H    1     2.6232     4.9572  94 SI   0 0 0
   1 H    1     2.7092     5.1196 105 SI   0 0 0

   2 H    1     1.4667     2.7717 118 SI   0 0 0
   2 H    1     1.9963     3.7725  29 O    0 0 0
   2 H    1     2.3930     4.5221 137 SI   0 0 0
   2 H    1     2.4725     4.6724  14 O    0 0 0
   2 H    1     2.5418     4.8033   8 O   -1 0 0
   2 H    1     2.6055     4.9236  38 O    0 0 0

   3 H    1     1.4876     2.8111 135 SI   0 1 0
   3 H    1     1.8630     3.5205  80 SI   0 0 0
   3 H    1     2.2734     4.2961  79 SI   0 0 0
   3 H    1     2.3494     4.4397  27 O    0 0 0
   3 H    1     2.5859     4.8867  44 O    0 0 0
   3 H    1     2.6428     4.9941  56 O    0 1 0

   4 H    1     1.4376     2.7167 139 SI   0 0 0
   4 H    1     1.9121     3.6134  38 O    0 0 0
   4 H    1     2.0788     3.9283  12 O    0 0 0
   4 H    1     2.1241     4.0139 133 SI   0 0 0
   4 H    1     2.1648     4.0910  21 O    0 0 0
   4 H    1     2.3340     4.4107   5 H    0 0 0

   5 H    1     1.4549     2.7494 139 SI   0 0 0
   5 H    1     1.9786     3.7391  42 O    0 0 0
   5 H    1     2.1210     4.0082 140 SI   0 0 0
   5 H    1     2.2703     4.2903  55 O    0 0 0
   5 H    1     2.3340     4.4107   4 H    0 0 0
   5 H    1     2.4023     4.5397  34 O    0 0 0

   6 O    1     1.5838     2.9929 150 SI   0 0 0
   6 O    1     1.6069     3.0366 126 SI   0 0 0
   6 O    1     2.5699     4.8565  13 O    0 0 0
   6 O    1     2.5820     4.8793  18 O    0 1 0
   6 O    1     2.5910     4.8963  50 O    0 0 0
   6 O    1     2.6085     4.9294   8 O    0 0 0

   7 O    1     1.5882     3.0014 128 SI   0 0 0
   7 O    1     1.6984     3.2095 146 SI   0 0 0
   7 O    1     2.3739     4.4860  25 O    0 0 0
   7 O    1     2.4661     4.6603  34 O    0 0 0
   7 O    1     2.5870     4.8886  19 O    0 0 0
   7 O    1     2.5916     4.8975  20 O    0 0 0

   8 O    1     1.6293     3.0789 126 SI   0 0 0
   8 O    1     1.7435     3.2947 129 SI   1 0 0
   8 O    1     2.0282     3.8327 148 SI   1 0 0
   8 O    1     2.3614     4.4624  58 O    1 0 0
   8 O    1     2.3767     4.4912  53 O    0 0 0
   8 O    1     2.5198     4.7617  29 O    1 0 0

   9 O    1     1.6237     3.0684 130 SI   0 1 0
   9 O    1     1.6557     3.1289 119 SI   0 0 0
   9 O    1     2.5634     4.8442  18 O    0 1 0
   9 O    1     2.6688     5.0434  36 O    0 0 0
   9 O    1     2.8094     5.3091  12 O    0 1 0
   9 O    1     2.9494     5.5735  58 O    0 0 0

  10 O    1     1.6494     3.1169 127 SI   0 0 0
  10 O    1     1.6633     3.1433 131 SI   0 0 0
  10 O    1     2.5846     4.8842  19 O    0 0 0
  10 O    1     2.6382     4.9854  16 O    0 0 0
  10 O    1     2.6507     5.0091  24 O    0 0 0
  10 O    1     2.6991     5.1006  21 O    0 0 0

  11 O    1     1.6192     3.0599 132 SI   1 0 0
  11 O    1     1.6425     3.1038 129 SI   1-1 0
  11 O    1     2.5764     4.8687  58 O    1-1 0
  11 O    1     2.5781     4.8718  23 O    0 0 0
  11 O    1     2.6320     4.9738  17 O    1 0 0
  11 O    1     2.7676     5.2300  22 O    1 0 0

  12 O    1     1.6141     3.0501 130 SI   0 0 0
  12 O    1     1.7734     3.3513 139 SI   0 0 0
  12 O    1     2.0788     3.9283   4 H    0 0 0
  12 O    1     2.6128     4.9375  18 O    0 0 0
  12 O    1     2.6460     5.0003  36 O    0-1 0
  12 O    1     2.7752     5.2443  34 O    0 0 0

  13 O    1     1.6143     3.0506 126 SI   0 0 0
  13 O    1     1.7255     3.2607 107 SI   0 0-1
  13 O    1     2.5699     4.8565   6 O    0 0 0
  13 O    1     2.5744     4.8648   8 O    0 0 0
  13 O    1     2.6504     5.0085  24 O    0 0 0
  13 O    1     2.8319     5.3515 106 SI   0 0-1

  14 O    1     1.6603     3.1376 133 SI   0 0 0
  14 O    1     1.6685     3.1531 113 SI  -1 0 0
  14 O    1     2.4725     4.6724   2 H    0 0 0
  14 O    1     2.6028     4.9186  38 O    0 0 0
  14 O    1     2.6214     4.9538  23 O   -1 0 0
  14 O    1     2.7360     5.1703  22 O    0 0 0

  15 O    1     1.6127     3.0475 127 SI   0 0 0
  15 O    1     1.6573     3.1318 137 SI   0 0 0
  15 O    1     2.6251     4.9608  31 O    0 0 0
  15 O    1     2.6316     4.9730  38 O    0 0 0
  15 O    1     2.6341     4.9777  16 O    0 0 0
  15 O    1     2.7343     5.1671   2 H    0 0 0

  16 O    1     1.6456     3.1097 127 SI   0 0 0
  16 O    1     1.6457     3.1100 106 SI   0 0-1
  16 O    1     2.3399     4.4218   1 H    0 0-1
  16 O    1     2.6341     4.9777  15 O    0 0 0
  16 O    1     2.6382     4.9854  10 O    0 0 0
  16 O    1     2.6566     5.0202  21 O    0 0 0

  17 O    1     1.5704     2.9675 132 SI   0 0 0
  17 O    1     1.7511     3.3091 140 SI   0 0 0
  17 O    1     2.3380     4.4183  41 O   -1 0 0
  17 O    1     2.4287     4.5895  55 O    0 0 0
  17 O    1     2.6320     4.9738  11 O   -1 0 0
  17 O    1     2.6803     5.0651   5 H    0 0 0

  18 O    1     1.5764     2.9790 150 SI   0-1 0
  18 O    1     1.6385     3.0964 130 SI   0 0 0
  18 O    1     2.4838     4.6937  33 O    0 0 0
  18 O    1     2.5315     4.7838  36 O    0-1 0
  18 O    1     2.5634     4.8442   9 O    0-1 0
  18 O    1     2.5820     4.8793   6 O    0-1 0

  19 O    1     1.6455     3.1095 131 SI   0 0 0
  19 O    1     1.6679     3.1520 128 SI   0 0 0
  19 O    1     2.5327     4.7860  21 O    0 0 0
  19 O    1     2.5784     4.8725  23 O    0 0 0
  19 O    1     2.5846     4.8842  10 O    0 0 0
  19 O    1     2.5870     4.8886   7 O    0 0 0

  20 O    1     1.6080     3.0388 128 SI   0 0 0
  20 O    1     1.6658     3.1480 112 SI   0 0-1
  20 O    1     2.5916     4.8975   7 O    0 0 0
  20 O    1     2.6827     5.0696  19 O    0 0 0
  20 O    1     2.6830     5.0702  18 O    0 0 0
  20 O    1     2.9235     5.5246  21 O    0 0 0

  21 O    1     1.6778     3.1707 127 SI   0 0 0
  21 O    1     1.7014     3.2153 128 SI   0 0 0
  21 O    1     2.1648     4.0910   4 H    0 0 0
  21 O    1     2.5133     4.7494 125 SI   0 0-1
  21 O    1     2.5327     4.7860  19 O    0 0 0
  21 O    1     2.6566     5.0202  16 O    0 0 0

  22 O    1     1.7436     3.2949 132 SI   0 0 0
  22 O    1     1.8425     3.4819 124 SI   0 0-1
  22 O    1     1.9001     3.5906 133 SI   0 0 0
  22 O    1     2.3689     4.4765   4 H    0 0 0
  22 O    1     2.6069     4.9263  23 O   -1 0 0
  22 O    1     2.7028     5.1076  17 O    0 0 0

  23 O    1     1.6372     3.0939 132 SI   1 0 0
  23 O    1     1.6644     3.1452 113 SI   0 0 0
  23 O    1     2.5781     4.8718  11 O    0 0 0
  23 O    1     2.5784     4.8725  19 O    0 0 0
  23 O    1     2.6069     4.9263  22 O    1 0 0
  23 O    1     2.6214     4.9538  14 O    1 0 0

  24 O    1     1.5892     3.0032 126 SI   0 0 0
  24 O    1     1.6187     3.0589 131 SI   0 0 0
  24 O    1     2.5700     4.8566  52 O    0 0 0
  24 O    1     2.5956     4.9049  19 O    0 0 0
  24 O    1     2.6367     4.9826   8 O    0 0 0
  24 O    1     2.6504     5.0085  13 O    0 0 0

  25 O    1     1.6128     3.0478 136 SI   0 0 0
  25 O    1     1.7462     3.2998 146 SI   0 0 0
  25 O    1     2.3739     4.4860   7 O    0 0 0
  25 O    1     2.4094     4.5531  46 O    0 0 0
  25 O    1     2.4450     4.6203  57 O    0 0 0
  25 O    1     2.6274     4.9651  41 O    0 0 0

  26 O    1     1.6377     3.0947 145 SI   0 0 0
  26 O    1     1.6501     3.1182 143 SI   0 0 0
  26 O    1     2.5856     4.8861  51 O    0 0 0
  26 O    1     2.5884     4.8913  49 O    0 0 0
  26 O    1     2.7241     5.1478  27 O    0 0 0
  26 O    1     2.7303     5.1595  43 O    0 0 0

  27 O    1     1.7218     3.2538 143 SI   0 0 0
  27 O    1     1.7361     3.2807  79 SI   0 0 0
  27 O    1     2.3299     4.4028 135 SI   0 1 0
  27 O    1     2.3494     4.4397   3 H    0 0 0
  27 O    1     2.6222     4.9553  43 O    0 0 0
  27 O    1     2.7241     5.1478  26 O    0 0 0

  28 O    1     1.5976     3.0191 134 SI   0 0 0
  28 O    1     1.6673     3.1507 136 SI   0 0 0
  28 O    1     2.4766     4.6801  52 O    0 0 0
  28 O    1     2.5155     4.7535  41 O    0 0 0
  28 O    1     2.5751     4.8663  47 O    0 0 0
  28 O    1     2.6523     5.0121  61 O    0 0 0

  29 O    1     1.6138     3.0497 137 SI   0 0 0
  29 O    1     1.6886     3.1910 148 SI   0 0 0
  29 O    1     1.9963     3.7725   2 H    0 0 0
  29 O    1     2.5012     4.7267  54 O    0 0 0
  29 O    1     2.5198     4.7617   8 O   -1 0 0
  29 O    1     2.5837     4.8825  38 O    0 0 0

  30 O    1     1.5852     2.9956 138 SI   0 0 0
  30 O    1     1.6155     3.0529 141 SI   0 0 0
  30 O    1     2.5162     4.7548  48 O    0 0 0
  30 O    1     2.5168     4.7560  33 O    0 0 0
  30 O    1     2.5955     4.9048  32 O    0-1 0
  30 O    1     2.6080     4.9285  60 O    0 0 0

  31 O    1     1.6031     3.0294 142 SI   0 0 0
  31 O    1     1.6256     3.0719 137 SI   0 0 0
  31 O    1     2.5694     4.8554  45 O    0 0 0
  31 O    1     2.6251     4.9608  15 O    0 0 0
  31 O    1     2.6292     4.9685  51 O    0 0 0
  31 O    1     2.6360     4.9813  38 O    0 0 0

  32 O    1     1.6236     3.0682 144 SI   0 0 0
  32 O    1     1.6369     3.0932 152 SI   0 0 0
  32 O    1     2.5816     4.8785  33 O    0 1 0
  32 O    1     2.5907     4.8956  53 O    0 0 0
  32 O    1     2.5955     4.9048  30 O    0 1 0
  32 O    1     2.6474     5.0029  61 O    0 0 0

  33 O    1     1.7055     3.2228 150 SI   0-1 0
  33 O    1     1.7828     3.3691 152 SI   0-1 0
  33 O    1     1.8310     3.4601 138 SI   0 0 0
  33 O    1     2.4838     4.6937  18 O    0 0 0
  33 O    1     2.5168     4.7560  30 O    0 0 0
  33 O    1     2.5816     4.8785  32 O    0-1 0

  34 O    1     1.6442     3.1071 139 SI   0 0 0
  34 O    1     1.7290     3.2672 146 SI   0 0 0
  34 O    1     2.4023     4.5397   5 H    0 0 0
  34 O    1     2.4451     4.6206  46 O    0 0 0
  34 O    1     2.4547     4.6387  57 O    0 0 0
  34 O    1     2.4661     4.6603   7 O    0 0 0

  35 O    1     1.6979     3.2086 149 SI   0 0 0
  35 O    1     1.8095     3.4195  87 SI   0 0 0
  35 O    1     2.6242     4.9590  46 O    0 0 0
  35 O    1     2.9921     5.6543  47 O    0 0 0
  35 O    1     3.0716     5.8046  72 SI   0 0 0
  35 O    1     3.1259     5.9071  62 SI   0 0 0

  36 O    1     1.6091     3.0407 130 SI   0 1 0
  36 O    1     1.6148     3.0516 153 SI   0 1 0
  36 O    1     2.5315     4.7838  18 O    0 1 0
  36 O    1     2.5980     4.9096  54 O    0 0 0
  36 O    1     2.6071     4.9268  55 O    0 1 0
  36 O    1     2.6460     5.0003  12 O    0 1 0

  37 O    1     1.5714     2.9696 152 SI   0-1 0
  37 O    1     1.7238     3.2574 140 SI   1 0 0
  37 O    1     2.5497     4.8182  55 O    1 0 0
  37 O    1     2.6301     4.9702  41 O    0 0 0
  37 O    1     2.7120     5.1250  17 O    1 0 0
  37 O    1     2.7498     5.1963  33 O    0 0 0

  38 O    1     1.6235     3.0681 137 SI   0 0 0
  38 O    1     1.6254     3.0715 133 SI   0 0 0
  38 O    1     1.9121     3.6134   4 H    0 0 0
  38 O    1     2.5837     4.8825  29 O    0 0 0
  38 O    1     2.6028     4.9186  14 O    0 0 0
  38 O    1     2.6055     4.9236   2 H    0 0 0

  39 O    1     1.6327     3.0854 134 SI  -1 0 0
  39 O    1     1.7018     3.2159  78 SI   0 0 0
  39 O    1     2.4645     4.6572  61 O   -1 0 0
  39 O    1     2.7042     5.1103  47 O   -1 0 0
  39 O    1     2.8294     5.3467  28 O   -1 0 0
  39 O    1     2.8872     5.4561  41 O   -1 0 0

  40 O    1     1.6274     3.0754  86 SI   0 0 0
  40 O    1     1.7074     3.2265 151 SI   0 0 0
  40 O    1     2.5549     4.8281  42 O    0 0 0
  40 O    1     2.7256     5.1507  48 O   -1 0 0
  40 O    1     2.7655     5.2261   3 H    0-1 0
  40 O    1     3.0539     5.7710  60 O   -1 0 0

  41 O    1     1.6117     3.0457 136 SI   0 0 0
  41 O    1     1.6805     3.1757 140 SI   1 0 0
  41 O    1     2.3380     4.4183  17 O    1 0 0
  41 O    1     2.3942     4.5243  42 O    1 0 0
  41 O    1     2.5155     4.7535  28 O    0 0 0
  41 O    1     2.6274     4.9651  25 O    0 0 0

  42 O    1     1.6215     3.0642 151 SI   0 0 0
  42 O    1     1.7605     3.3268 140 SI   0 0 0
  42 O    1     1.9786     3.7391   5 H    0 0 0
  42 O    1     2.3906     4.5176  55 O    0 0 0
  42 O    1     2.3942     4.5243  41 O   -1 0 0
  42 O    1     2.5549     4.8281  40 O    0 0 0

  43 O    1     1.6399     3.0989 142 SI   0 0 0
  43 O    1     1.6567     3.1306 143 SI   0 0 0
  43 O    1     2.6147     4.9411  51 O    0 0 0
  43 O    1     2.6201     4.9514  45 O    0 0 0
  43 O    1     2.6222     4.9553  27 O    0 0 0
  43 O    1     2.7303     5.1595  26 O    0 0 0

  44 O    1     1.6312     3.0826 147 SI   0 0 0
  44 O    1     1.6895     3.1927 144 SI  -1 0 0
  44 O    1     2.2673     4.2845  61 O   -1 0 0
  44 O    1     2.3832     4.5036  48 O   -1 1 0
  44 O    1     2.5338     4.7882  86 SI   0 1 0
  44 O    1     2.5859     4.8867   3 H    0 0 0

  45 O    1     1.6059     3.0347 147 SI   0 0 0
  45 O    1     1.6210     3.0633 142 SI   0 0 0
  45 O    1     2.5694     4.8554  31 O    0 0 0
  45 O    1     2.5759     4.8678  54 O    0 0 0
  45 O    1     2.5789     4.8735  61 O   -1 0 0
  45 O    1     2.6201     4.9514  43 O    0 0 0

  46 O    1     1.6304     3.0810 149 SI   0 0 0
  46 O    1     1.7007     3.2138 146 SI   0 0 0
  46 O    1     2.4094     4.5531  25 O    0 0 0
  46 O    1     2.4451     4.6206  34 O    0 0 0
  46 O    1     2.6242     4.9590  35 O    0 0 0
  46 O    1     2.7412     5.1802  47 O    0 0 0

  47 O    1     1.6499     3.1179 134 SI   0 0 0
  47 O    1     1.6874     3.1888 149 SI   0 0 0
[...]
   0.0000043  -0.0000070  -0.0035627  -0.0000307   0.0394333  -0.0202895
  -0.0015814  -0.0007686  -0.0022901  -0.0014173  -0.0006000  -0.0016229
   6.8499545  28.4473626  26.0114710   5.1938814   0.0013973  27.4559126
   1.6063090  21.9746301  -1.9378561  -1.7696615  26.0162235  -0.4743452
  10.1044829  -0.0063245  25.9924865  26.0316005  13.2034129  27.5948413
  26.7664564  26.0017241  26.4011928  23.9659846  25.9471374  26.0041436
  21.4602839   0.0448103   4.0625829   0.0948680  -0.5836241   1.0149161
  -1.2482539  29.2319980  10.2713421  -0.0076051  26.0300472  26.0128868
  26.0012763  44.6774970  44.9339577  39.9491921  41.8750899   5.2222218
   4.1636787  -0.9232571  -1.0255160  44.7835976  45.4064936  42.0949681
  33.8533907  10.4779692   2.0065433  -1.0451115  -1.0598874  44.5861614
  44.4229041  42.2920562  42.5927597  11.1626696  21.1731427  -1.7393688
  -1.4514055  45.1597809  44.0001795  45.4824754  44.5374034   8.9774241
  12.5727229  -1.4849137  -1.7277841   0.0188273  -0.0054184   0.0044035
   0.0052985   0.0059017   0.0278296  -0.0108513   0.0294488  -0.0022334
  -0.0020460  -0.0001571   0.0000243  -0.0002785  -0.0003749  -0.0019112
  -0.0033422   0.0000094  -0.0000284  -0.0001172  -0.0000344  -0.0022342
  -0.0021776  -0.0002729  -0.0001207  -0.0002442   0.0001054  -0.0009054
  -0.0015532  -0.0004073   0.0001331  -0.0001785  -0.0003565  -0.0032697
  -0.0093909  -0.0042031  -0.0014977  -0.0303215  -0.0098650  -0.0089924
  -0.0014137  45.7522552  44.0590231   1.3201455   0.1475090  10.3064303
  -0.4135863   7.7038717  44.0016484  37.2274689  44.0600286  43.7908933
   5.6412007   8.1035257  43.8525226   0.2568571  43.8017035  -0.0606203
  44.0128662   4.7031996   7.6530001
 SUMMED SPIN DENSITY           0.00000000
 TOTAL ATOMIC SPINS  :
   0.0000000   0.0000001  -0.0000007   0.0000003  -0.0000667   0.0000002
   0.0000008   0.0000005  -0.0000001  -0.0000002   0.0000000  -0.0000002
   0.0000001   0.0000000  -0.0000004   0.0000000   0.0000015  -0.0000005
   0.0000001   0.0000001   0.0000003   0.0000001  -0.0000001  -0.0000002
   0.0000118   0.0000037  -0.0000003  -0.0000185   0.0000014   0.0000239
   0.0000122  -0.0000230   0.0000036   0.0000597  -0.0000006  -0.0000156
  -0.0000139  -0.0000001  -0.0000017  -0.0000009   0.0001188  -0.0000232
  -0.0000263  -0.0000009   0.0000213   0.0000188   0.0000010   0.0000000
   0.0000864   0.0000096   0.0000288   0.0000023   0.0000334   0.0000316
   0.0000079  -0.0000157  -0.0000038   0.0000001  -0.0000001   0.0000006
  -0.0000146  -0.0000008   0.0000001   0.0000095   0.0000075   0.0000433
  -0.0000301   0.0000046   0.0000042  -0.0000018  -0.0000005  -0.0000210
  -0.0000917   0.0000199  -0.0000116   0.0000168   0.0000096   0.0000063
  -0.0000003  -0.0000104  -0.0000116  -0.0000047   0.0000483   0.0000025
  -0.0000101  -0.0000043  -0.0000012  -0.0000043  -0.0000257  -0.0000217
  -0.0000067  -0.0000044  -0.0000025  -0.0000008   0.0000002  -0.0000002
  -0.0000006  -0.0000009  -0.0000004   0.0000003   0.0000007  -0.0000001
  -0.0000001   0.0000000   0.0000001  -0.0000001   0.0000000   0.0000000
   0.0000002   0.0000002   0.0000000   0.0000000  -0.0000001   0.0000000
   0.0000001   0.0000000   0.0000001  -0.0000002  -0.0000001   0.0000000
   0.0000000   0.0000001   0.0000000   0.0000000  -0.0000001  -0.0000006
   0.0000000  -0.0000002   0.0000000   0.0000036   0.0000004  -0.0000003
   0.0000001   0.0000072   0.0000041  -0.0000168  -0.0000076  -0.0002175
   0.0000841   0.0000135   0.0000017   0.0000140   0.0000051   0.0000419
  -0.0000649  -0.0001372   0.0000386  -0.0000076   0.0000001   0.0000021
  -0.0000008   0.0000258   0.0000527
 TTTTTTTTTTTTTTTTTTTTTTTTTTTTTT MOQGAD      TELAPSE    44054.44 TCPU    28714.73
 WARNING **** GENBUD **** COUL. BIPO BUFFER TOO SMALL - TO AVOID I/O SET BIPOSIZE =     2250500
 TTTTTTTTTTTTTTTTTTTTTTTTTTTTTT SHELLX      TELAPSE    44159.89 TCPU    28818.43
 TTTTTTTTTTTTTTTTTTTTTTTTTTTTTT MONMO3      TELAPSE    44169.91 TCPU    28828.43
 NUMERICALLY INTEGRATED DENSITY    870.5009413408    870.5009413472
 TTTTTTTTTTTTTTTTTTTTTTTTTTTTTT NUMDFT      TELAPSE    44177.86 TCPU    28836.37
 CYC 147 ETOT(AU)  5.134379036906E+04 DETOT  1.30E-04 tst  1.34E+00 PX  5.26E-04
 MODIFIED BROYDEN: MIX%=  90 W0=  1.000000000000E-04 W=  1.604055491743E-12
 TTTTTTTTTTTTTTTTTTTTTTTTTTTTTT FDIK        TELAPSE    44675.67 TCPU    28860.46
 POSSIBLY CONDUCTING STATE - EFERMI(AU) -8.1656994E+09 (RES. CHARGE  0.00E+00;IT.  2)
 TTTTTTTTTTTTTTTTTTTTTTTTTTTTTT PDIG        TELAPSE    44679.14 TCPU    28863.93
 CHARGE NORMALIZATION FACTOR   1.00000000
 TOTAL ATOMIC CHARGES:
  -0.0000832  -0.0006005   9.9851381  -0.0009496  -0.5179906  -0.0027148
  -0.0759383  -0.0029027  -0.0010805  -0.0166641  -0.0024649   0.0062739
   0.0000043  -0.0000071  -0.0035627  -0.0000307   0.0394335  -0.0202893
  -0.0015814  -0.0007686  -0.0022900  -0.0014174  -0.0006000  -0.0016228
   6.8499540  28.4473625  26.0114710   5.1938813   0.0013972  27.4559128
   1.6063083  21.9746307  -1.9378560  -1.7696624  26.0162236  -0.4743457
  10.1044833  -0.0063245  25.9924864  26.0316004  13.2034141  27.5948408
  26.7664559  26.0017242  26.4011936  23.9659845  25.9471374  26.0041435
  21.4602841   0.0448103   4.0625820   0.0948683  -0.5836240   1.0149160
  -1.2482545  29.2319975  10.2713426  -0.0076050  26.0300471  26.0128870
  26.0012766  44.6774972  44.9339575  39.9491914  41.8750895   5.2222214
   4.1636787  -0.9232569  -1.0255161  44.7835979  45.4064933  42.0949677
  33.8533900  10.4779689   2.0065433  -1.0451113  -1.0598874  44.5861616
  44.4229040  42.2920559  42.5927587  11.1626697  21.1731407  -1.7393690
  -1.4514052  45.1597808  44.0001797  45.4824752  44.5374020   8.9774235
  12.5727234  -1.4849139  -1.7277843   0.0188272  -0.0054184   0.0044035
   0.0052985   0.0059017   0.0278297  -0.0108513   0.0294490  -0.0022334
  -0.0020460  -0.0001571   0.0000242  -0.0002785  -0.0003749  -0.0019112
  -0.0033422   0.0000094  -0.0000284  -0.0001172  -0.0000344  -0.0022342
  -0.0021776  -0.0002729  -0.0001207  -0.0002442   0.0001054  -0.0009054
  -0.0015532  -0.0004073   0.0001331  -0.0001786  -0.0003564  -0.0032696
  -0.0093908  -0.0042031  -0.0014978  -0.0303217  -0.0098650  -0.0089922
  -0.0014137  45.7522552  44.0590231   1.3201457   0.1475090  10.3064316
  -0.4135859   7.7038725  44.0016481  37.2274713  44.0600287  43.7908934
   5.6412026   8.1035262  43.8525224   0.2568570  43.8017028  -0.0606205
  44.0128664   4.7031997   7.6530023
 SUMMED SPIN DENSITY           0.00000000
 TOTAL ATOMIC SPINS  :
   0.0000001   0.0000001  -0.0000005   0.0000004  -0.0000668   0.0000001
   0.0000011   0.0000004   0.0000000  -0.0000001   0.0000000  -0.0000001
   0.0000001   0.0000000  -0.0000004  -0.0000001   0.0000016  -0.0000005
   0.0000002   0.0000001   0.0000002   0.0000002  -0.0000002  -0.0000003
   0.0000111   0.0000035  -0.0000002  -0.0000185   0.0000014   0.0000238
   0.0000118  -0.0000223   0.0000038   0.0000593  -0.0000006  -0.0000158
  -0.0000132  -0.0000002  -0.0000018  -0.0000009   0.0001179  -0.0000227
  -0.0000262  -0.0000009   0.0000210   0.0000185   0.0000009   0.0000002
   0.0000860   0.0000099   0.0000287   0.0000021   0.0000335   0.0000311
   0.0000079  -0.0000160  -0.0000026   0.0000001   0.0000000   0.0000006
  -0.0000147  -0.0000009   0.0000002   0.0000092   0.0000077   0.0000432
  -0.0000306   0.0000046   0.0000045  -0.0000016  -0.0000006  -0.0000205
  -0.0000923   0.0000198  -0.0000112   0.0000166   0.0000094   0.0000062
  -0.0000004  -0.0000100  -0.0000116  -0.0000052   0.0000480   0.0000024
  -0.0000100  -0.0000040  -0.0000009  -0.0000042  -0.0000261  -0.0000209
  -0.0000071  -0.0000047  -0.0000022  -0.0000008   0.0000001  -0.0000002
  -0.0000006  -0.0000008  -0.0000003   0.0000003   0.0000006   0.0000000
  -0.0000001   0.0000000   0.0000001  -0.0000001  -0.0000001   0.0000001
   0.0000002   0.0000001   0.0000000   0.0000000  -0.0000001  -0.0000001
   0.0000001   0.0000000   0.0000001  -0.0000001  -0.0000001   0.0000000
   0.0000000   0.0000001   0.0000000   0.0000000   0.0000000  -0.0000006
   0.0000002  -0.0000003  -0.0000001   0.0000035   0.0000003  -0.0000003
   0.0000000   0.0000070   0.0000038  -0.0000153  -0.0000079  -0.0002172
   0.0000843   0.0000133   0.0000018   0.0000156   0.0000048   0.0000414
  -0.0000651  -0.0001373   0.0000385  -0.0000072  -0.0000003   0.0000021
  -0.0000013   0.0000243   0.0000538
 TTTTTTTTTTTTTTTTTTTTTTTTTTTTTT MOQGAD      TELAPSE    44679.27 TCPU    28864.06
 WARNING **** GENBUD **** COUL. BIPO BUFFER TOO SMALL - TO AVOID I/O SET BIPOSIZE =     2250500
 TTTTTTTTTTTTTTTTTTTTTTTTTTTTTT SHELLX      TELAPSE    44784.32 TCPU    28967.69
 TTTTTTTTTTTTTTTTTTTTTTTTTTTTTT MONMO3      TELAPSE    44795.50 TCPU    28978.85
 NUMERICALLY INTEGRATED DENSITY    870.5009413408    870.5009413471
 TTTTTTTTTTTTTTTTTTTTTTTTTTTTTT NUMDFT      TELAPSE    44805.61 TCPU    28988.94
 CYC 148 ETOT(AU)  5.134379036194E+04 DETOT -7.12E-06 tst  6.55E-01 PX  8.71E-05
 MODIFIED BROYDEN: MIX%=  90 W0=  1.000000000000E-04 W=  1.226657540009E-12
 TTTTTTTTTTTTTTTTTTTTTTTTTTTTTT FDIK        TELAPSE    45316.04 TCPU    29031.82
 POSSIBLY CONDUCTING STATE - EFERMI(AU) -1.0677988E+10 (RES. CHARGE  0.00E+00;IT.  2)
 TTTTTTTTTTTTTTTTTTTTTTTTTTTTTT PDIG        TELAPSE    45319.45 TCPU    29035.23
 CHARGE NORMALIZATION FACTOR   1.00000000
 TOTAL ATOMIC CHARGES:
  -0.0000832  -0.0006006   9.9851386  -0.0009498  -0.5179908  -0.0027145
  -0.0759390  -0.0029026  -0.0010806  -0.0166641  -0.0024649   0.0062740
   0.0000042  -0.0000071  -0.0035624  -0.0000307   0.0394320  -0.0202889
  -0.0015813  -0.0007687  -0.0022901  -0.0014175  -0.0006000  -0.0016226
   6.8499546  28.4473614  26.0114710   5.1938798   0.0013974  27.4559114
   1.6063087  21.9746305  -1.9378571  -1.7696636  26.0162232  -0.4743488
  10.1044788  -0.0063243  25.9924866  26.0316009  13.2034144  27.5948412
  26.7664555  26.0017248  26.4011959  23.9659837  25.9471373  26.0041442
  21.4602838   0.0448108   4.0625791   0.0948683  -0.5836236   1.0149146
  -1.2482543  29.2319963  10.2713405  -0.0076051  26.0300476  26.0128869
  26.0012764  44.6774976  44.9339570  39.9491923  41.8750905   5.2222209
   4.1636779  -0.9232569  -1.0255167  44.7835980  45.4064948  42.0949657
  33.8533874  10.4779687   2.0065432  -1.0451119  -1.0598879  44.5861608
  44.4229034  42.2920551  42.5927556  11.1626696  21.1731376  -1.7393684
  -1.4514054  45.1597801  44.0001800  45.4824755  44.5374004   8.9774230
  12.5727232  -1.4849127  -1.7277842   0.0188272  -0.0054185   0.0044034
   0.0052987   0.0059014   0.0278294  -0.0108512   0.0294489  -0.0022333
  -0.0020458  -0.0001571   0.0000241  -0.0002785  -0.0003748  -0.0019114
  -0.0033425   0.0000093  -0.0000284  -0.0001171  -0.0000343  -0.0022342
  -0.0021776  -0.0002730  -0.0001207  -0.0002441   0.0001055  -0.0009053
  -0.0015533  -0.0004073   0.0001331  -0.0001786  -0.0003563  -0.0032692
  -0.0093909  -0.0042031  -0.0014977  -0.0303214  -0.0098656  -0.0089920
  -0.0014138  45.7522572  44.0590220   1.3201468   0.1475084  10.3064364
  -0.4135859   7.7038735  44.0016481  37.2274732  44.0600300  43.7908905
   5.6412072   8.1035285  43.8525238   0.2568574  43.8017025  -0.0606210
  44.0128671   4.7032087   7.6530090
 SUMMED SPIN DENSITY           0.00000000
 TOTAL ATOMIC SPINS  :
   0.0000000   0.0000000  -0.0000006   0.0000002  -0.0000669   0.0000003
   0.0000013   0.0000003  -0.0000001  -0.0000001   0.0000001  -0.0000002
   0.0000000   0.0000000  -0.0000002   0.0000000   0.0000007  -0.0000002
   0.0000001   0.0000001   0.0000002  -0.0000001  -0.0000001   0.0000000
   0.0000112   0.0000036  -0.0000001  -0.0000205   0.0000013   0.0000218
   0.0000135  -0.0000220   0.0000040   0.0000592  -0.0000005  -0.0000180
  -0.0000186  -0.0000001  -0.0000019  -0.0000005   0.0001180  -0.0000218
  -0.0000263  -0.0000006   0.0000222   0.0000171   0.0000009   0.0000004
   0.0000855   0.0000115   0.0000275   0.0000020   0.0000344   0.0000291
   0.0000093  -0.0000154  -0.0000029   0.0000000   0.0000010   0.0000008
  -0.0000153   0.0000004  -0.0000008   0.0000100   0.0000091   0.0000419
  -0.0000321   0.0000048   0.0000038  -0.0000018   0.0000005  -0.0000211
  -0.0000938   0.0000183  -0.0000097   0.0000164   0.0000086   0.0000055
  -0.0000020  -0.0000105  -0.0000123  -0.0000052   0.0000448   0.0000033
  -0.0000101  -0.0000030  -0.0000006  -0.0000032  -0.0000253  -0.0000214
  -0.0000064  -0.0000050  -0.0000023  -0.0000007   0.0000001   0.0000000
  -0.0000004  -0.0000007  -0.0000007   0.0000005   0.0000009   0.0000000
   0.0000001   0.0000000   0.0000000   0.0000000   0.0000000   0.0000000
   0.0000001   0.0000000   0.0000000   0.0000000   0.0000000   0.0000000
   0.0000000  -0.0000001   0.0000001  -0.0000001   0.0000000  -0.0000001
  -0.0000001   0.0000000   0.0000001   0.0000000   0.0000000  -0.0000004
  -0.0000001   0.0000000   0.0000000   0.0000042  -0.0000002  -0.0000002
   0.0000000   0.0000098   0.0000032  -0.0000153  -0.0000079  -0.0002129
   0.0000847   0.0000135   0.0000019   0.0000129   0.0000056   0.0000389
  -0.0000650  -0.0001371   0.0000399  -0.0000066  -0.0000007   0.0000012
  -0.0000009   0.0000299   0.0000572
 TTTTTTTTTTTTTTTTTTTTTTTTTTTTTT MOQGAD      TELAPSE    45319.56 TCPU    29035.34
 WARNING **** GENBUD **** COUL. BIPO BUFFER TOO SMALL - TO AVOID I/O SET BIPOSIZE =     2250500
 TTTTTTTTTTTTTTTTTTTTTTTTTTTTTT SHELLX      TELAPSE    45425.15 TCPU    29138.43
 TTTTTTTTTTTTTTTTTTTTTTTTTTTTTT MONMO3      TELAPSE    45435.21 TCPU    29148.47
 NUMERICALLY INTEGRATED DENSITY    870.5009413408    870.5009413471
 TTTTTTTTTTTTTTTTTTTTTTTTTTTTTT NUMDFT      TELAPSE    45442.83 TCPU    29156.08
 CYC 149 ETOT(AU)  5.134379043631E+04 DETOT  7.44E-05 tst  8.56E-01 PX  2.98E-04
 MODIFIED BROYDEN: MIX%=  90 W0=  1.000000000000E-04 W=  9.380528127152E-13
 TTTTTTTTTTTTTTTTTTTTTTTTTTTTTT FDIK        TELAPSE    45957.95 TCPU    29186.30
 POSSIBLY CONDUCTING STATE - EFERMI(AU) -1.3963216E+10 (RES. CHARGE  0.00E+00;IT.  2)
 TTTTTTTTTTTTTTTTTTTTTTTTTTTTTT PDIG        TELAPSE    45961.39 TCPU    29189.73
 CHARGE NORMALIZATION FACTOR   1.00000000
 TOTAL ATOMIC CHARGES:
  -0.0000832  -0.0006006   9.9851379  -0.0009497  -0.5179919  -0.0027146
  -0.0759403  -0.0029027  -0.0010807  -0.0166643  -0.0024649   0.0062736
   0.0000042  -0.0000071  -0.0035623  -0.0000306   0.0394323  -0.0202889
  -0.0015813  -0.0007687  -0.0022901  -0.0014176  -0.0006000  -0.0016227
   6.8499542  28.4473625  26.0114707   5.1938802   0.0013973  27.4559100
   1.6063086  21.9746303  -1.9378572  -1.7696641  26.0162231  -0.4743495
  10.1044780  -0.0063242  25.9924864  26.0316010  13.2034152  27.5948405
  26.7664550  26.0017251  26.4011969  23.9659840  25.9471373  26.0041441
  21.4602854   0.0448109   4.0625788   0.0948683  -0.5836236   1.0149145
  -1.2482545  29.2319963  10.2713400  -0.0076053  26.0300479  26.0128869
  26.0012769  44.6774980  44.9339570  39.9491918  41.8750905   5.2222205
   4.1636770  -0.9232567  -1.0255170  44.7835980  45.4064943  42.0949652
  33.8533872  10.4779689   2.0065433  -1.0451117  -1.0598876  44.5861611
  44.4229040  42.2920553  42.5927549  11.1626699  21.1731354  -1.7393686
  -1.4514048  45.1597792  44.0001800  45.4824761  44.5373991   8.9774214
  12.5727234  -1.4849124  -1.7277844   0.0188272  -0.0054185   0.0044033
   0.0052984   0.0059014   0.0278296  -0.0108512   0.0294488  -0.0022333
  -0.0020458  -0.0001572   0.0000242  -0.0002785  -0.0003748  -0.0019114
  -0.0033424   0.0000093  -0.0000284  -0.0001171  -0.0000342  -0.0022342
  -0.0021777  -0.0002730  -0.0001207  -0.0002440   0.0001055  -0.0009052
  -0.0015534  -0.0004073   0.0001332  -0.0001786  -0.0003563  -0.0032690
  -0.0093910  -0.0042029  -0.0014975  -0.0303214  -0.0098655  -0.0089920
  -0.0014138  45.7522574  44.0590224   1.3201473   0.1475085  10.3064376
  -0.4135854   7.7038730  44.0016483  37.2274745  44.0600298  43.7908909
   5.6412058   8.1035319  43.8525235   0.2568575  43.8017017  -0.0606212
  44.0128675   4.7032115   7.6530113
 SUMMED SPIN DENSITY           0.00000000
 TOTAL ATOMIC SPINS  :
   0.0000000   0.0000001  -0.0000002   0.0000002  -0.0000660   0.0000003
   0.0000009   0.0000003   0.0000000   0.0000002   0.0000001  -0.0000002
   0.0000000  -0.0000001  -0.0000003   0.0000001   0.0000005  -0.0000002
   0.0000002   0.0000001   0.0000002   0.0000000   0.0000000   0.0000000
   0.0000105   0.0000040  -0.0000001  -0.0000206   0.0000012   0.0000223
   0.0000141  -0.0000206   0.0000043   0.0000592  -0.0000008  -0.0000174
  -0.0000185  -0.0000001  -0.0000020  -0.0000006   0.0001189  -0.0000219
  -0.0000260  -0.0000004   0.0000226   0.0000169   0.0000009   0.0000001
   0.0000846   0.0000119   0.0000274   0.0000017   0.0000346   0.0000305
   0.0000091  -0.0000129  -0.0000041   0.0000000   0.0000011   0.0000006
  -0.0000150   0.0000001  -0.0000004   0.0000093   0.0000096   0.0000416
  -0.0000317   0.0000048   0.0000038  -0.0000013   0.0000006  -0.0000213
  -0.0000946   0.0000185  -0.0000084   0.0000155   0.0000082   0.0000045
  -0.0000017  -0.0000107  -0.0000126  -0.0000051   0.0000443   0.0000033
  -0.0000105  -0.0000032  -0.0000004  -0.0000025  -0.0000244  -0.0000206
  -0.0000070  -0.0000045  -0.0000021  -0.0000004   0.0000000   0.0000001
  -0.0000003  -0.0000007  -0.0000005   0.0000004   0.0000008  -0.0000001
   0.0000000   0.0000000   0.0000000   0.0000000   0.0000000   0.0000000
   0.0000000   0.0000000   0.0000000   0.0000000   0.0000000   0.0000000
   0.0000000  -0.0000001   0.0000001  -0.0000001   0.0000000  -0.0000001
   0.0000000   0.0000000   0.0000000   0.0000000   0.0000000  -0.0000004
  -0.0000002  -0.0000002   0.0000000   0.0000043  -0.0000006  -0.0000004
   0.0000001   0.0000105   0.0000022  -0.0000149  -0.0000074  -0.0002129
   0.0000844   0.0000113   0.0000020   0.0000120   0.0000058   0.0000397
  -0.0000663  -0.0001346   0.0000384  -0.0000071  -0.0000001   0.0000014
  -0.0000010   0.0000282   0.0000535
 TTTTTTTTTTTTTTTTTTTTTTTTTTTTTT MOQGAD      TELAPSE    45961.59 TCPU    29189.94
 WARNING **** GENBUD **** COUL. BIPO BUFFER TOO SMALL - TO AVOID I/O SET BIPOSIZE =     2250500
 TTTTTTTTTTTTTTTTTTTTTTTTTTTTTT SHELLX      TELAPSE    46066.29 TCPU    29294.41
 +++ ENERGIES IN A.U. +++
 ::: EXT EL-POLE                                  -2.7618473444630E+05
 ::: EXT EL-SPHEROPOLE                             5.1619676882658E+02
 ::: BIELET ZONE E-E                               3.4447378503972E+05
 ::: TOTAL E-E                                     6.8805247362250E+04
 ::: TOTAL E-N + N-E                              -2.4556389186373E+04
 ::: TOTAL N-N                                    -5.4381312296319E+03
 ::: KINETIC ENERGY                                1.4053652690190E+04
 ::: PSEUDO TOTAL   ENERGY                         5.2864379636435E+04
 ::: VIRIAL COEFFICIENT                           -7.2421486511476E-01
 TTTTTTTTTTTTTTTTTTTTTTTTTTTTTT MONMO3      TELAPSE    46076.77 TCPU    29304.83
 NUMERICALLY INTEGRATED DENSITY    870.5009413406    870.5009413472
 TTTTTTTTTTTTTTTTTTTTTTTTTTTTTT NUMDFT      TELAPSE    46084.41 TCPU    29312.46
 CYC 150 ETOT(AU)  5.134379046199E+04 DETOT  2.57E-05 tst  5.11E-01 PX  2.98E-04

 == SCF ENDED - TOO MANY CYCLES            E(AU)  5.1343790461994E+04 CYCLES 150


 ENERGY EXPRESSION=HARTREE+FOCK EXCH*0.05000+(BECKE  EXCH)*0.95000+LYP    CORR

 FINITE TEMPERATURE DFT CALCULATION 
 TEMPERATURE      (T)    1.000000000000E-13 HARTREE 
 ENERGY           (E)    5.134379046199E+04
 FREE ENERGY      (F)    5.134379046199E+04
 ELECTRON ENTROPY (S)    0.000000000000E+00
 (E(T)+F(T))/2    (E0)   5.134379046199E+04


 TOTAL ENERGY(DFT)(AU)(150)  5.1343790461994E+04 DE 2.6E-05 tester 5.1E-01
 TTTTTTTTTTTTTTTTTTTTTTTTTTTTTT EDFT        TELAPSE    46084.90 TCPU    29312.92
 EIGENVECTORS IN FORTRAN UNIT  8
 TTTTTTTTTTTTTTTTTTTTTTTTTTTTTT END         TELAPSE    46134.69 TCPU    29362.45
 EEEEEEEEEE TERMINATION  DATE 05 09 2014 TIME 11:06:52.1
NODE    0 CPU TIME =     29362.447
    TOTAL CPU TIME =   7109434.844
