--------------------------------------------------------------------------
WARNING: Open MPI will create a shared memory backing file in a
directory that appears to be mounted on a network filesystem.
Creating the shared memory backup file on a network file system, such
as NFS or Lustre is not recommended -- it may cause excessive network
traffic to your file servers and/or cause shared memory traffic in
Open MPI to be much slower than expected.

You may want to check what the typical temporary directory is on your
node.  Possible sources of the location of this temporary directory
include the $TEMPDIR, $TEMP, and $TMP environment variables.

Note, too, that system administrators can set a list of filesystems
where Open MPI is disallowed from creating temporary files by settings
the MCA parameter "orte_no_session_dir".

  Local host: r3i1n5
  Fileame:    /ichec/work/scratch/tmp/267440.service1.cb3.ichec.ie/openmpi-sessions-emehes@r3i1n5_0/2964/1/shared_mem_pool.r3i1n5

You can set the MCA paramter shmem_mmap_enable_nfs_warning to 0 to
disable this message.
--------------------------------------------------------------------------
--------------------------------------------------------------------------
WARNING: It appears that your OpenFabrics subsystem is configured to only
allow registering part of your physical memory.  This can cause MPI jobs to
run with erratic performance, hang, and/or crash.

This may be caused by your OpenFabrics vendor limiting the amount of
physical memory that can be registered.  You should investigate the
relevant Linux kernel module parameters that control how much physical
memory can be registered, and increase them to allow registering all
physical memory on your machine.

See this Open MPI FAQ item for more information on these Linux kernel module
parameters:

    http://www.open-mpi.org/faq/?category=openfabrics#ib-locked-pages

  Local host:              r3i1n9
  Registerable memory:     32768 MiB
  Total memory:            65506 MiB

Your MPI job will continue, but may be behave poorly and/or hang.
--------------------------------------------------------------------------
         192 PROCESSORS WORKING

         
 *******************************************************************************
 *                                                                             *
 *                                CRYSTAL09                                    *
 *                              public : 2.0                                   *
 *                      December 10th, 2012 - parallel executable              *
 *                                                                             *
 *                                                                             *
 *                                                                             *
 *                              MAIN AUTHORS                                   *
 *                                                                             *
 *    R. DOVESI(1,10), V.R. SAUNDERS(2), C. ROETTI(1,10), R. ORLANDO (1,3),    *
 *  C.M. ZICOVICH-WILSON(1,4), F. PASCALE(5), B. CIVALLERI(1,10), K. DOLL(6),  *
 *       N.M. HARRISON(2,7), I. J. BUSH(2), Ph. D'ARCO(8), M. LLUNELL(9)       *
 *                                                                             *
 * (1) THEORETICAL CHEMISTRY GROUP - UNIVERSITA' DI TORINO - TORINO (ITALY)    *
 *      http://www.crystal.unito.it                                            *
 * (2) COMPUTATIONAL SCIENCE & ENGINEERING DEPARTMENT - STFC DARESBURY LABORATO*Y (UK)
 *     http://www.cse.stfc.ac.uk/cmg/CRYSTAL/                                  *
 * (3) UNIVERSITA' DEL PIEMONTE ORIENTALE - ALESSANDRIA (ITALY)                *
 * (4) UNIVERSIDAD AUTONOMA DEL ESTADO DE MORELOS - CUERNAVACA (MEXICO)        *
 * (5) UNIVERSITE' HENRI POINCARE' - NANCY (FRANCE)                            *
 * (6) MPI FUER FESTKOERPERFORSCHUNG - STUTTGART (GERMANY)                     *
 * (7) IMPERIAL COLLEGE - LONDON (UK)                                          *
 * (8) UNIVERSITE' PIERRE ET MARIE CURIE - PARIS (FRANCE)                      *
 * (9) UNIVERSIDAD DE BARCELONA - BARCELONA (SPAIN)                            *
 *(10) NIS - NANOSTRUCTURED INTERFACES AND SURFACES - TORINO (ITALY)           *
 *     http://www.crystal.unito.it                                             *
 *******************************************************************************
 EEEEEEEEEE STARTING  DATE 30 08 2014 TIME 14:48:55.0
 Created with astools                                                            

 CRYSTAL CALCULATION
 (INPUT ACCORDING TO THE INTERNATIONAL TABLES FOR X-RAY CRYSTALLOGRAPHY)
 CRYSTAL FAMILY                       :  TRICLINIC   
 CRYSTAL CLASS  (GROTH - 1921)        :  TRICLINIC PEDIAL                     

 SPACE GROUP (NONCENTROSYMMETRIC)     :  P 1             

 LATTICE PARAMETERS  (ANGSTROMS AND DEGREES) - CONVENTIONAL CELL
        A           B           C        ALPHA        BETA       GAMMA
    11.07140    10.48440    20.87130    90.00000    90.00000    90.00000


 NUMBER OF IRREDUCIBLE ATOMS IN THE CONVENTIONAL CELL:  158

 INPUT COORDINATES

 ATOM AT. N.              COORDINATES
   1   1     8.299800000000E-02  5.936460000000E-01  9.675100000000E-01
   2   1     6.768980000000E-01  6.553370000000E-01  9.834350000000E-01
   3   1     8.956330000000E-01  2.420980000000E-01  6.032870000000E-01
   4   1     7.191140000000E-01  8.356000000000E-02  6.014900000000E-01
   5   1     1.023768000000E+00  4.029740000000E-01  8.997500000000E-01
   6   1     6.645500000000E-01  9.946800000000E-01  6.823140000000E-01
   7   1     9.996540000000E-01  7.187390000000E-01  6.990040000000E-01
   8   1     3.800950000000E-01  6.069840000000E-01  8.768230000000E-01
   9   1     5.569240000000E-01  8.285070000000E-01  6.902120000000E-01
  10   1     7.709300000000E-02  2.378810000000E-01  6.922830000000E-01
  11   8     2.487370000000E-01  3.698030000000E-01  6.355930000000E-01
  12   8     4.685390000000E-01  3.668640000000E-01  6.059860000000E-01
  13   8     8.584290000000E-01  4.168330000000E-01  5.609740000000E-01
  14   8     1.474570000000E-01  4.627700000000E-02  6.308360000000E-01
  15   8     5.763920000000E-01  6.297130000000E-01  5.433310000000E-01
  16   8     8.631560000000E-01  6.494240000000E-01  6.292600000000E-01
  17   8     3.174810000000E-01  3.218670000000E-01  5.146820000000E-01
  18   8     7.547410000000E-01  1.412550000000E-01  4.931440000000E-01
  19   8     9.013380000000E-01  2.297300000000E-02  6.714110000000E-01
  20   8     9.400240000000E-01  3.467000000000E-02  5.505850000000E-01
  21   8     5.884840000000E-01  7.650490000000E-01  6.601350000000E-01
  22   8     2.840710000000E-01  8.563570000000E-01  6.136930000000E-01
  23   8     1.941710000000E-01  6.673140000000E-01  5.381630000000E-01
  24   8     9.540490000000E-01  6.207330000000E-01  5.177460000000E-01
  25   8     4.421500000000E-02  8.213870000000E-01  6.053810000000E-01
  26   8     7.314650000000E-01  7.798130000000E-01  5.423110000000E-01
  27   8     5.002930000000E-01  8.827100000000E-01  5.497810000000E-01
  28   8     3.567160000000E-01  1.332460000000E-01  6.063580000000E-01
  29   8     2.499810000000E-01  8.403870000000E-01  7.953660000000E-01
  30   8     1.236100000000E-01  2.471840000000E-01  8.601320000000E-01
  31   8     1.855430000000E-01  6.275240000000E-01  6.563370000000E-01
  32   8     9.241330000000E-01  4.506710000000E-01  9.989260000000E-01
  33   8     3.086140000000E-01  7.230900000000E-02  8.341690000000E-01
  34   8     6.457590000000E-01  2.124160000000E-01  6.844550000000E-01
  35   8     1.566040000000E-01  5.859180000000E-01  8.781480000000E-01
  36   8     7.714430000000E-01  4.598700000000E-02  7.902360000000E-01
  37   8     3.551040000000E-01  3.932190000000E-01  8.389320000000E-01
  38   8     2.298530000000E-01  4.931270000000E-01  7.490750000000E-01
  39   8     7.300500000000E-02  8.950660000000E-01  7.188870000000E-01
  40   8     9.455190000000E-01  8.943260000000E-01  9.704820000000E-01
  41   8     8.389420000000E-01  5.720970000000E-01  7.452580000000E-01
  42   8     4.254440000000E-01  6.133410000000E-01  7.904490000000E-01
  43   8     8.062850000000E-01  8.304820000000E-01  7.334420000000E-01
  44   8     5.417600000000E-01  1.168290000000E-01  9.622490000000E-01
  45   8     4.749950000000E-01  8.947730000000E-01  9.996560000000E-01
  46   8     4.853130000000E-01  8.586510000000E-01  7.872190000000E-01
  47   8     5.171690000000E-01  7.435110000000E-01  8.966000000000E-01
  48   8     8.996860000000E-01  8.735600000000E-02  8.977230000000E-01
  49   8     5.268430000000E-01  3.852510000000E-01  9.534160000000E-01
  50   8     6.971120000000E-01  2.083330000000E-01  8.820550000000E-01
  51   8     3.790500000000E-02  9.098190000000E-01  8.464720000000E-01
  52   8     1.404240000000E-01  4.467900000000E-02  9.264300000000E-01
  53   8     3.163750000000E-01  4.685160000000E-01  9.564250000000E-01
  54   8     3.415900000000E-02  4.398480000000E-01  7.928000000000E-01
  55   8     1.088370000000E-01  2.225800000000E-01  7.374940000000E-01
  56   8     9.013520000000E-01  2.463760000000E-01  8.046020000000E-01
  57   8     3.546800000000E-01  1.000216000000E+00  7.117740000000E-01
  58   8     4.689610000000E-01  3.910820000000E-01  7.243030000000E-01
  59   8     3.243400000000E-02  4.457370000000E-01  6.503270000000E-01
  60   8     6.800200000000E-01  4.046920000000E-01  7.705380000000E-01
  61   8     6.593950000000E-01  6.541330000000E-01  8.075910000000E-01
  62   8     8.168970000000E-01  4.946920000000E-01  8.682520000000E-01
  63   8     7.429700000000E-02  6.884620000000E-01  7.846490000000E-01
  64   8     6.501330000000E-01  4.617860000000E-01  6.400680000000E-01
  65   8     2.936000000000E-01  7.449310000000E-01  9.571220000000E-01
  66   8     3.046960000000E-01  2.330810000000E-01  9.379530000000E-01
  67  14     1.161660000000E-01  9.763300000000E-02  3.455100000000E-02
  68  14     2.633220000000E-01  2.576890000000E-01  3.411300000000E-02
  69  14     1.823940000000E-01  4.329880000000E-01  9.176500000000E-02
  70  14     4.236550000000E-01  1.729670000000E-01  9.406100000000E-02
  71  14     5.437700000000E-02  3.084680000000E-01  1.548550000000E-01
  72  14     3.001800000000E-01  5.420900000000E-02  1.616650000000E-01
  73  14     1.735260000000E-01  1.855240000000E-01  2.233610000000E-01
  74  14     4.296620000000E-01  4.257960000000E-01  2.237320000000E-01
  75  14     9.403200000000E-02  6.002730000000E-01  3.819300000000E-02
  76  14     2.604460000000E-01  7.442800000000E-01  4.126200000000E-02
  77  14     1.837240000000E-01  9.254870000000E-01  9.375300000000E-02
  78  14     4.380690000000E-01  6.566360000000E-01  8.471000000000E-02
  79  14     4.776300000000E-02  8.153840000000E-01  1.594330000000E-01
  80  14     3.110740000000E-01  5.523730000000E-01  1.582530000000E-01
  81  14     1.787330000000E-01  6.848330000000E-01  2.196660000000E-01
  82  14     4.365700000000E-01  9.280530000000E-01  2.181250000000E-01
  83  14     5.321080000000E-01  3.106100000000E-02  2.793200000000E-02
  84  14     8.276040000000E-01  3.233750000000E-01  2.265100000000E-02
  85  14     6.782370000000E-01  4.284650000000E-01  8.436400000000E-02
  86  14     9.407340000000E-01  1.808250000000E-01  8.412800000000E-02
  87  14     5.554210000000E-01  3.076530000000E-01  1.534580000000E-01
  88  14     8.115010000000E-01  6.502100000000E-02  1.541410000000E-01
  89  14     6.828260000000E-01  1.877570000000E-01  2.204670000000E-01
  90  14     9.235300000000E-01  4.369370000000E-01  2.182330000000E-01
  91  14     5.784030000000E-01  5.549640000000E-01  7.681000000000E-03
  92  14     8.311940000000E-01  8.220660000000E-01  1.501400000000E-02
  93  14     6.943890000000E-01  9.417050000000E-01  8.383700000000E-02
  94  14     9.303710000000E-01  6.910260000000E-01  9.008200000000E-02
  95  14     5.577820000000E-01  8.061650000000E-01  1.449900000000E-01
  96  14     7.994950000000E-01  5.589120000000E-01  1.499920000000E-01
  97  14     6.799980000000E-01  6.897190000000E-01  2.161260000000E-01
  98  14     9.284910000000E-01  9.437750000000E-01  2.262660000000E-01
  99  14     5.009500000000E-02  7.199700000000E-02  2.936450000000E-01
 100  14     2.963680000000E-01  3.080080000000E-01  2.898720000000E-01
 101  14     4.427100000000E-02  5.672090000000E-01  2.842400000000E-01
 102  14     3.023210000000E-01  8.147680000000E-01  2.847560000000E-01
 103  14     5.525290000000E-01  6.341600000000E-02  2.834990000000E-01
 104  14     8.042580000000E-01  3.146940000000E-01  2.891160000000E-01
 105  14     5.564150000000E-01  5.625040000000E-01  2.800090000000E-01
 106  14     7.970830000000E-01  8.186960000000E-01  2.877360000000E-01
 107  14     1.617160000000E-01  4.385370000000E-01  3.503140000000E-01
 108  14     4.288100000000E-01  1.845440000000E-01  3.512920000000E-01
 109  14     5.427000000000E-02  3.284340000000E-01  4.309790000000E-01
 110  14     3.129680000000E-01  6.929900000000E-02  4.254750000000E-01
 111  14     1.938770000000E-01  2.048290000000E-01  4.914950000000E-01
 112  14     4.218580000000E-01  4.411950000000E-01  4.746580000000E-01
 113  14     1.881990000000E-01  9.511200000000E-01  3.532260000000E-01
 114  14     4.306680000000E-01  6.829230000000E-01  3.438380000000E-01
 115  14     6.607700000000E-02  8.254060000000E-01  4.179420000000E-01
 116  14     3.003350000000E-01  5.626060000000E-01  4.064120000000E-01
 117  14     2.350160000000E-01  7.331910000000E-01  4.679670000000E-01
 118  14     4.090890000000E-01  8.917990000000E-01  4.826590000000E-01
 119  14     6.751940000000E-01  4.443000000000E-01  3.490590000000E-01
 120  14     9.277870000000E-01  1.987020000000E-01  3.630280000000E-01
 121  14     5.515090000000E-01  3.162670000000E-01  4.113530000000E-01
 122  14     8.058800000000E-01  5.639900000000E-02  4.244650000000E-01
 123  14     6.055450000000E-01  2.166420000000E-01  5.066850000000E-01
 124  14     9.195910000000E-01  4.711630000000E-01  4.925680000000E-01
 125  14     6.731870000000E-01  9.467020000000E-01  3.542650000000E-01
 126  14     9.267950000000E-01  6.980870000000E-01  3.543100000000E-01
 127  14     5.472550000000E-01  8.097600000000E-01  4.111520000000E-01
 128  14     7.963460000000E-01  5.629430000000E-01  4.165370000000E-01
 129  14     6.623830000000E-01  6.833390000000E-01  4.795970000000E-01
 130  14     9.301850000000E-01  9.247910000000E-01  4.890130000000E-01
 131  14     3.465060000000E-01  2.878250000000E-01  5.930200000000E-01
 132  14     3.281200000000E-02  9.614600000000E-01  6.518040000000E-01
 133  14     1.818130000000E-01  7.436900000000E-01  6.047290000000E-01
 134  14     5.924550000000E-01  4.168760000000E-01  5.685350000000E-01
 135  14     8.295550000000E-01  1.390380000000E-01  5.730190000000E-01
 136  14     8.719180000000E-01  4.632290000000E-01  6.374050000000E-01
 137  14     2.905980000000E-01  1.009049000000E+00  6.414300000000E-01
 138  14     5.839440000000E-01  7.719120000000E-01  5.867560000000E-01
 139  14     8.914920000000E-01  7.412700000000E-01  5.553210000000E-01
 140  14     2.239870000000E-01  1.500250000000E-01  8.858020000000E-01
 141  14     8.991820000000E-01  4.037880000000E-01  9.213640000000E-01
 142  14     3.585630000000E-01  9.455840000000E-01  7.863620000000E-01
 143  14     7.778520000000E-01  9.847670000000E-01  7.179920000000E-01
 144  14     1.256480000000E-01  5.542600000000E-01  8.049420000000E-01
 145  14     8.735690000000E-01  7.021620000000E-01  7.068720000000E-01
 146  14     5.246670000000E-01  7.172780000000E-01  8.201610000000E-01
 147  14     2.817740000000E-01  6.036940000000E-01  9.209220000000E-01
 148  14     8.127310000000E-01  1.481740000000E-01  8.431750000000E-01
 149  14     3.974740000000E-01  3.574800000000E-01  9.123410000000E-01
 150  14     4.315900000000E-02  2.867720000000E-01  7.970430000000E-01
 151  14     1.071980000000E-01  8.420760000000E-01  7.880150000000E-01
 152  14     5.601900000000E-01  2.261060000000E-01  9.084740000000E-01
 153  14     6.214960000000E-01  3.566350000000E-01  7.016190000000E-01
 154  14     1.001286000000E+00  9.805820000000E-01  9.131700000000E-01
 155  14     1.708270000000E-01  4.783100000000E-01  6.665420000000E-01
 156  14     4.275390000000E-01  8.679330000000E-01  9.240970000000E-01
 157  14     3.881890000000E-01  4.680090000000E-01  7.726450000000E-01
 158  14     7.486350000000E-01  5.283950000000E-01  8.019950000000E-01

 *******************************************************************************

 << INFORMATION >>: FROM NOW ON, ALL COORDINATES REFER TO THE PRIMITIVE CELL

 *******************************************************************************

 LATTICE PARAMETERS  (ANGSTROMS AND DEGREES) - PRIMITIVE CELL
       A          B          C         ALPHA     BETA     GAMMA        VOLUME
   11.07140   10.48440   20.87130    90.00000  90.00000  90.00000   2422.677601

 COORDINATES OF THE EQUIVALENT ATOMS (FRACTIONAL UNITS)

 N. ATOM EQUIV AT. N.          X                  Y                  Z

   1   1   1    1 H     8.29980000000E-02 -4.06354000000E-01 -3.24900000000E-02

   2   2   1    1 H    -3.23102000000E-01 -3.44663000000E-01 -1.65650000000E-02

   3   3   1    1 H    -1.04367000000E-01  2.42098000000E-01 -3.96713000000E-01

   4   4   1    1 H    -2.80886000000E-01  8.35600000000E-02 -3.98510000000E-01

   5   5   1    1 H     2.37680000000E-02  4.02974000000E-01 -1.00250000000E-01

   6   6   1    1 H    -3.35450000000E-01 -5.32000000000E-03 -3.17686000000E-01

   7   7   1    1 H    -3.46000000000E-04 -2.81261000000E-01 -3.00996000000E-01

   8   8   1    1 H     3.80095000000E-01 -3.93016000000E-01 -1.23177000000E-01

   9   9   1    1 H    -4.43076000000E-01 -1.71493000000E-01 -3.09788000000E-01

  10  10   1    1 H     7.70930000000E-02  2.37881000000E-01 -3.07717000000E-01

  11  11   1    8 O     2.48737000000E-01  3.69803000000E-01 -3.64407000000E-01

  12  12   1    8 O     4.68539000000E-01  3.66864000000E-01 -3.94014000000E-01

  13  13   1    8 O    -1.41571000000E-01  4.16833000000E-01 -4.39026000000E-01

  14  14   1    8 O     1.47457000000E-01  4.62770000000E-02 -3.69164000000E-01

  15  15   1    8 O    -4.23608000000E-01 -3.70287000000E-01 -4.56669000000E-01

  16  16   1    8 O    -1.36844000000E-01 -3.50576000000E-01 -3.70740000000E-01

  17  17   1    8 O     3.17481000000E-01  3.21867000000E-01 -4.85318000000E-01

  18  18   1    8 O    -2.45259000000E-01  1.41255000000E-01  4.93144000000E-01

  19  19   1    8 O    -9.86620000000E-02  2.29730000000E-02 -3.28589000000E-01

  20  20   1    8 O    -5.99760000000E-02  3.46700000000E-02 -4.49415000000E-01

  21  21   1    8 O    -4.11516000000E-01 -2.34951000000E-01 -3.39865000000E-01

  22  22   1    8 O     2.84071000000E-01 -1.43643000000E-01 -3.86307000000E-01

  23  23   1    8 O     1.94171000000E-01 -3.32686000000E-01 -4.61837000000E-01

  24  24   1    8 O    -4.59510000000E-02 -3.79267000000E-01 -4.82254000000E-01

  25  25   1    8 O     4.42150000000E-02 -1.78613000000E-01 -3.94619000000E-01

  26  26   1    8 O    -2.68535000000E-01 -2.20187000000E-01 -4.57689000000E-01

  27  27   1    8 O    -4.99707000000E-01 -1.17290000000E-01 -4.50219000000E-01

  28  28   1    8 O     3.56716000000E-01  1.33246000000E-01 -3.93642000000E-01

  29  29   1    8 O     2.49981000000E-01 -1.59613000000E-01 -2.04634000000E-01

  30  30   1    8 O     1.23610000000E-01  2.47184000000E-01 -1.39868000000E-01

  31  31   1    8 O     1.85543000000E-01 -3.72476000000E-01 -3.43663000000E-01

  32  32   1    8 O    -7.58670000000E-02  4.50671000000E-01 -1.07400000000E-03

  33  33   1    8 O     3.08614000000E-01  7.23090000000E-02 -1.65831000000E-01

  34  34   1    8 O    -3.54241000000E-01  2.12416000000E-01 -3.15545000000E-01

  35  35   1    8 O     1.56604000000E-01 -4.14082000000E-01 -1.21852000000E-01

  36  36   1    8 O    -2.28557000000E-01  4.59870000000E-02 -2.09764000000E-01

  37  37   1    8 O     3.55104000000E-01  3.93219000000E-01 -1.61068000000E-01

  38  38   1    8 O     2.29853000000E-01  4.93127000000E-01 -2.50925000000E-01

  39  39   1    8 O     7.30050000000E-02 -1.04934000000E-01 -2.81113000000E-01

  40  40   1    8 O    -5.44810000000E-02 -1.05674000000E-01 -2.95180000000E-02

  41  41   1    8 O    -1.61058000000E-01 -4.27903000000E-01 -2.54742000000E-01

  42  42   1    8 O     4.25444000000E-01 -3.86659000000E-01 -2.09551000000E-01

  43  43   1    8 O    -1.93715000000E-01 -1.69518000000E-01 -2.66558000000E-01

  44  44   1    8 O    -4.58240000000E-01  1.16829000000E-01 -3.77510000000E-02

  45  45   1    8 O     4.74995000000E-01 -1.05227000000E-01 -3.44000000000E-04

  46  46   1    8 O     4.85313000000E-01 -1.41349000000E-01 -2.12781000000E-01

  47  47   1    8 O    -4.82831000000E-01 -2.56489000000E-01 -1.03400000000E-01

  48  48   1    8 O    -1.00314000000E-01  8.73560000000E-02 -1.02277000000E-01

  49  49   1    8 O    -4.73157000000E-01  3.85251000000E-01 -4.65840000000E-02

  50  50   1    8 O    -3.02888000000E-01  2.08333000000E-01 -1.17945000000E-01

  51  51   1    8 O     3.79050000000E-02 -9.01810000000E-02 -1.53528000000E-01

  52  52   1    8 O     1.40424000000E-01  4.46790000000E-02 -7.35700000000E-02

  53  53   1    8 O     3.16375000000E-01  4.68516000000E-01 -4.35750000000E-02

  54  54   1    8 O     3.41590000000E-02  4.39848000000E-01 -2.07200000000E-01

  55  55   1    8 O     1.08837000000E-01  2.22580000000E-01 -2.62506000000E-01

  56  56   1    8 O    -9.86480000000E-02  2.46376000000E-01 -1.95398000000E-01

  57  57   1    8 O     3.54680000000E-01  2.16000000000E-04 -2.88226000000E-01

  58  58   1    8 O     4.68961000000E-01  3.91082000000E-01 -2.75697000000E-01

  59  59   1    8 O     3.24340000000E-02  4.45737000000E-01 -3.49673000000E-01

  60  60   1    8 O    -3.19980000000E-01  4.04692000000E-01 -2.29462000000E-01

  61  61   1    8 O    -3.40605000000E-01 -3.45867000000E-01 -1.92409000000E-01

  62  62   1    8 O    -1.83103000000E-01  4.94692000000E-01 -1.31748000000E-01

  63  63   1    8 O     7.42970000000E-02 -3.11538000000E-01 -2.15351000000E-01

  64  64   1    8 O    -3.49867000000E-01  4.61786000000E-01 -3.59932000000E-01

  65  65   1    8 O     2.93600000000E-01 -2.55069000000E-01 -4.28780000000E-02

  66  66   1    8 O     3.04696000000E-01  2.33081000000E-01 -6.20470000000E-02

  67  67   1   14 SI    1.16166000000E-01  9.76330000000E-02  3.45510000000E-02

  68  68   1   14 SI    2.63322000000E-01  2.57689000000E-01  3.41130000000E-02

  69  69   1   14 SI    1.82394000000E-01  4.32988000000E-01  9.17650000000E-02

  70  70   1   14 SI    4.23655000000E-01  1.72967000000E-01  9.40610000000E-02

  71  71   1   14 SI    5.43770000000E-02  3.08468000000E-01  1.54855000000E-01

  72  72   1   14 SI    3.00180000000E-01  5.42090000000E-02  1.61665000000E-01

  73  73   1   14 SI    1.73526000000E-01  1.85524000000E-01  2.23361000000E-01

  74  74   1   14 SI    4.29662000000E-01  4.25796000000E-01  2.23732000000E-01

  75  75   1   14 SI    9.40320000000E-02 -3.99727000000E-01  3.81930000000E-02

  76  76   1   14 SI    2.60446000000E-01 -2.55720000000E-01  4.12620000000E-02

  77  77   1   14 SI    1.83724000000E-01 -7.45130000000E-02  9.37530000000E-02

  78  78   1   14 SI    4.38069000000E-01 -3.43364000000E-01  8.47100000000E-02

  79  79   1   14 SI    4.77630000000E-02 -1.84616000000E-01  1.59433000000E-01

  80  80   1   14 SI    3.11074000000E-01 -4.47627000000E-01  1.58253000000E-01

  81  81   1   14 SI    1.78733000000E-01 -3.15167000000E-01  2.19666000000E-01

  82  82   1   14 SI    4.36570000000E-01 -7.19470000000E-02  2.18125000000E-01

  83  83   1   14 SI   -4.67892000000E-01  3.10610000000E-02  2.79320000000E-02

  84  84   1   14 SI   -1.72396000000E-01  3.23375000000E-01  2.26510000000E-02

  85  85   1   14 SI   -3.21763000000E-01  4.28465000000E-01  8.43640000000E-02

  86  86   1   14 SI   -5.92660000000E-02  1.80825000000E-01  8.41280000000E-02

  87  87   1   14 SI   -4.44579000000E-01  3.07653000000E-01  1.53458000000E-01

  88  88   1   14 SI   -1.88499000000E-01  6.50210000000E-02  1.54141000000E-01

  89  89   1   14 SI   -3.17174000000E-01  1.87757000000E-01  2.20467000000E-01

  90  90   1   14 SI   -7.64700000000E-02  4.36937000000E-01  2.18233000000E-01

  91  91   1   14 SI   -4.21597000000E-01 -4.45036000000E-01  7.68100000000E-03

  92  92   1   14 SI   -1.68806000000E-01 -1.77934000000E-01  1.50140000000E-02

  93  93   1   14 SI   -3.05611000000E-01 -5.82950000000E-02  8.38370000000E-02

  94  94   1   14 SI   -6.96290000000E-02 -3.08974000000E-01  9.00820000000E-02

  95  95   1   14 SI   -4.42218000000E-01 -1.93835000000E-01  1.44990000000E-01

  96  96   1   14 SI   -2.00505000000E-01 -4.41088000000E-01  1.49992000000E-01

  97  97   1   14 SI   -3.20002000000E-01 -3.10281000000E-01  2.16126000000E-01

  98  98   1   14 SI   -7.15090000000E-02 -5.62250000000E-02  2.26266000000E-01

  99  99   1   14 SI    5.00950000000E-02  7.19970000000E-02  2.93645000000E-01

 100 100   1   14 SI    2.96368000000E-01  3.08008000000E-01  2.89872000000E-01

 101 101   1   14 SI    4.42710000000E-02 -4.32791000000E-01  2.84240000000E-01

 102 102   1   14 SI    3.02321000000E-01 -1.85232000000E-01  2.84756000000E-01

 103 103   1   14 SI   -4.47471000000E-01  6.34160000000E-02  2.83499000000E-01

 104 104   1   14 SI   -1.95742000000E-01  3.14694000000E-01  2.89116000000E-01

 105 105   1   14 SI   -4.43585000000E-01 -4.37496000000E-01  2.80009000000E-01

 106 106   1   14 SI   -2.02917000000E-01 -1.81304000000E-01  2.87736000000E-01

 107 107   1   14 SI    1.61716000000E-01  4.38537000000E-01  3.50314000000E-01

 108 108   1   14 SI    4.28810000000E-01  1.84544000000E-01  3.51292000000E-01

 109 109   1   14 SI    5.42700000000E-02  3.28434000000E-01  4.30979000000E-01

 110 110   1   14 SI    3.12968000000E-01  6.92990000000E-02  4.25475000000E-01

 111 111   1   14 SI    1.93877000000E-01  2.04829000000E-01  4.91495000000E-01

 112 112   1   14 SI    4.21858000000E-01  4.41195000000E-01  4.74658000000E-01

 113 113   1   14 SI    1.88199000000E-01 -4.88800000000E-02  3.53226000000E-01

 114 114   1   14 SI    4.30668000000E-01 -3.17077000000E-01  3.43838000000E-01

 115 115   1   14 SI    6.60770000000E-02 -1.74594000000E-01  4.17942000000E-01

 116 116   1   14 SI    3.00335000000E-01 -4.37394000000E-01  4.06412000000E-01

 117 117   1   14 SI    2.35016000000E-01 -2.66809000000E-01  4.67967000000E-01

 118 118   1   14 SI    4.09089000000E-01 -1.08201000000E-01  4.82659000000E-01

 119 119   1   14 SI   -3.24806000000E-01  4.44300000000E-01  3.49059000000E-01

 120 120   1   14 SI   -7.22130000000E-02  1.98702000000E-01  3.63028000000E-01

 121 121   1   14 SI   -4.48491000000E-01  3.16267000000E-01  4.11353000000E-01

 122 122   1   14 SI   -1.94120000000E-01  5.63990000000E-02  4.24465000000E-01

 123 123   1   14 SI   -3.94455000000E-01  2.16642000000E-01 -4.93315000000E-01

 124 124   1   14 SI   -8.04090000000E-02  4.71163000000E-01  4.92568000000E-01

 125 125   1   14 SI   -3.26813000000E-01 -5.32980000000E-02  3.54265000000E-01

 126 126   1   14 SI   -7.32050000000E-02 -3.01913000000E-01  3.54310000000E-01

 127 127   1   14 SI   -4.52745000000E-01 -1.90240000000E-01  4.11152000000E-01

 128 128   1   14 SI   -2.03654000000E-01 -4.37057000000E-01  4.16537000000E-01

 129 129   1   14 SI   -3.37617000000E-01 -3.16661000000E-01  4.79597000000E-01

 130 130   1   14 SI   -6.98150000000E-02 -7.52090000000E-02  4.89013000000E-01

 131 131   1   14 SI    3.46506000000E-01  2.87825000000E-01 -4.06980000000E-01

 132 132   1   14 SI    3.28120000000E-02 -3.85400000000E-02 -3.48196000000E-01

 133 133   1   14 SI    1.81813000000E-01 -2.56310000000E-01 -3.95271000000E-01

 134 134   1   14 SI   -4.07545000000E-01  4.16876000000E-01 -4.31465000000E-01

 135 135   1   14 SI   -1.70445000000E-01  1.39038000000E-01 -4.26981000000E-01

 136 136   1   14 SI   -1.28082000000E-01  4.63229000000E-01 -3.62595000000E-01

 137 137   1   14 SI    2.90598000000E-01  9.04900000000E-03 -3.58570000000E-01

 138 138   1   14 SI   -4.16056000000E-01 -2.28088000000E-01 -4.13244000000E-01

 139 139   1   14 SI   -1.08508000000E-01 -2.58730000000E-01 -4.44679000000E-01

 140 140   1   14 SI    2.23987000000E-01  1.50025000000E-01 -1.14198000000E-01

 141 141   1   14 SI   -1.00818000000E-01  4.03788000000E-01 -7.86360000000E-02

 142 142   1   14 SI    3.58563000000E-01 -5.44160000000E-02 -2.13638000000E-01

 143 143   1   14 SI   -2.22148000000E-01 -1.52330000000E-02 -2.82008000000E-01

 144 144   1   14 SI    1.25648000000E-01 -4.45740000000E-01 -1.95058000000E-01

 145 145   1   14 SI   -1.26431000000E-01 -2.97838000000E-01 -2.93128000000E-01

 146 146   1   14 SI   -4.75333000000E-01 -2.82722000000E-01 -1.79839000000E-01

 147 147   1   14 SI    2.81774000000E-01 -3.96306000000E-01 -7.90780000000E-02

 148 148   1   14 SI   -1.87269000000E-01  1.48174000000E-01 -1.56825000000E-01

 149 149   1   14 SI    3.97474000000E-01  3.57480000000E-01 -8.76590000000E-02

 150 150   1   14 SI    4.31590000000E-02  2.86772000000E-01 -2.02957000000E-01

 151 151   1   14 SI    1.07198000000E-01 -1.57924000000E-01 -2.11985000000E-01

 152 152   1   14 SI   -4.39810000000E-01  2.26106000000E-01 -9.15260000000E-02

 153 153   1   14 SI   -3.78504000000E-01  3.56635000000E-01 -2.98381000000E-01

 154 154   1   14 SI    1.28600000000E-03 -1.94180000000E-02 -8.68300000000E-02

 155 155   1   14 SI    1.70827000000E-01  4.78310000000E-01 -3.33458000000E-01

 156 156   1   14 SI    4.27539000000E-01 -1.32067000000E-01 -7.59030000000E-02

 157 157   1   14 SI    3.88189000000E-01  4.68009000000E-01 -2.27355000000E-01

 158 158   1   14 SI   -2.51365000000E-01 -4.71605000000E-01 -1.98005000000E-01

 NUMBER OF SYMMETRY OPERATORS         :    1
 *******************************************************************************
 * GEOMETRY EDITING - INPUT COORDINATES ARE GIVEN IN ANGSTROM         
 *******************************************************************************

 GCALCO - MAX INDICES DIRECT LATTICE VECTOR    18    19     9
 NO.OF VECTORS CREATED 6999 STARS 1059 RMAX   301.31941 BOHR

 GEOMETRY FOR WAVE FUNCTION - DIMENSIONALITY OF THE SYSTEM    3
 (NON PERIODIC DIRECTION: LATTICE PARAMETER FORMALLY SET TO 500)
 *******************************************************************************
 LATTICE PARAMETERS (ANGSTROMS AND DEGREES) - BOHR = 0.5291772083 ANGSTROM
 PRIMITIVE CELL - CENTRING CODE 1/0 VOLUME=  2422.677601 - DENSITY  2.385 g/cm^3
         A              B              C           ALPHA      BETA       GAMMA 
    11.07140000    10.48440000    20.87130000    90.000000  90.000000  90.000000
 *******************************************************************************
 ATOMS IN THE ASYMMETRIC UNIT  158 - ATOMS IN THE UNIT CELL:  158
     ATOM              X/A                 Y/B                 Z/C    
 *******************************************************************************
   1 T   1 H     8.299800000000E-02 -4.063540000000E-01 -3.249000000000E-02
   2 T   1 H    -3.231020000000E-01 -3.446630000000E-01 -1.656500000000E-02
   3 T   1 H    -1.043670000000E-01  2.420980000000E-01 -3.967130000000E-01
   4 T   1 H    -2.808860000000E-01  8.356000000000E-02 -3.985100000000E-01
   5 T   1 H     2.376800000000E-02  4.029740000000E-01 -1.002500000000E-01
   6 T   1 H    -3.354500000000E-01 -5.320000000000E-03 -3.176860000000E-01
   7 T   1 H    -3.460000000000E-04 -2.812610000000E-01 -3.009960000000E-01
   8 T   1 H     3.800950000000E-01 -3.930160000000E-01 -1.231770000000E-01
   9 T   1 H    -4.430760000000E-01 -1.714930000000E-01 -3.097880000000E-01
  10 T   1 H     7.709300000000E-02  2.378810000000E-01 -3.077170000000E-01
  11 T   8 O     2.487370000000E-01  3.698030000000E-01 -3.644070000000E-01
  12 T   8 O     4.685390000000E-01  3.668640000000E-01 -3.940140000000E-01
  13 T   8 O    -1.415710000000E-01  4.168330000000E-01 -4.390260000000E-01
  14 T   8 O     1.474570000000E-01  4.627700000000E-02 -3.691640000000E-01
  15 T   8 O    -4.236080000000E-01 -3.702870000000E-01 -4.566690000000E-01
  16 T   8 O    -1.368440000000E-01 -3.505760000000E-01 -3.707400000000E-01
  17 T   8 O     3.174810000000E-01  3.218670000000E-01 -4.853180000000E-01
  18 T   8 O    -2.452590000000E-01  1.412550000000E-01  4.931440000000E-01
  19 T   8 O    -9.866200000000E-02  2.297300000000E-02 -3.285890000000E-01
  20 T   8 O    -5.997600000000E-02  3.467000000000E-02 -4.494150000000E-01
  21 T   8 O    -4.115160000000E-01 -2.349510000000E-01 -3.398650000000E-01
  22 T   8 O     2.840710000000E-01 -1.436430000000E-01 -3.863070000000E-01
  23 T   8 O     1.941710000000E-01 -3.326860000000E-01 -4.618370000000E-01
  24 T   8 O    -4.595100000000E-02 -3.792670000000E-01 -4.822540000000E-01
  25 T   8 O     4.421500000000E-02 -1.786130000000E-01 -3.946190000000E-01
  26 T   8 O    -2.685350000000E-01 -2.201870000000E-01 -4.576890000000E-01
  27 T   8 O    -4.997070000000E-01 -1.172900000000E-01 -4.502190000000E-01
  28 T   8 O     3.567160000000E-01  1.332460000000E-01 -3.936420000000E-01
  29 T   8 O     2.499810000000E-01 -1.596130000000E-01 -2.046340000000E-01
  30 T   8 O     1.236100000000E-01  2.471840000000E-01 -1.398680000000E-01
  31 T   8 O     1.855430000000E-01 -3.724760000000E-01 -3.436630000000E-01
  32 T   8 O    -7.586700000000E-02  4.506710000000E-01 -1.074000000000E-03
  33 T   8 O     3.086140000000E-01  7.230900000000E-02 -1.658310000000E-01
  34 T   8 O    -3.542410000000E-01  2.124160000000E-01 -3.155450000000E-01
  35 T   8 O     1.566040000000E-01 -4.140820000000E-01 -1.218520000000E-01
  36 T   8 O    -2.285570000000E-01  4.598700000000E-02 -2.097640000000E-01
  37 T   8 O     3.551040000000E-01  3.932190000000E-01 -1.610680000000E-01
  38 T   8 O     2.298530000000E-01  4.931270000000E-01 -2.509250000000E-01
  39 T   8 O     7.300500000000E-02 -1.049340000000E-01 -2.811130000000E-01
  40 T   8 O    -5.448100000000E-02 -1.056740000000E-01 -2.951800000000E-02
  41 T   8 O    -1.610580000000E-01 -4.279030000000E-01 -2.547420000000E-01
  42 T   8 O     4.254440000000E-01 -3.866590000000E-01 -2.095510000000E-01
  43 T   8 O    -1.937150000000E-01 -1.695180000000E-01 -2.665580000000E-01
  44 T   8 O    -4.582400000000E-01  1.168290000000E-01 -3.775100000000E-02
  45 T   8 O     4.749950000000E-01 -1.052270000000E-01 -3.440000000000E-04
  46 T   8 O     4.853130000000E-01 -1.413490000000E-01 -2.127810000000E-01
  47 T   8 O    -4.828310000000E-01 -2.564890000000E-01 -1.034000000000E-01
  48 T   8 O    -1.003140000000E-01  8.735600000000E-02 -1.022770000000E-01
  49 T   8 O    -4.731570000000E-01  3.852510000000E-01 -4.658400000000E-02
  50 T   8 O    -3.028880000000E-01  2.083330000000E-01 -1.179450000000E-01
  51 T   8 O     3.790500000000E-02 -9.018100000000E-02 -1.535280000000E-01
  52 T   8 O     1.404240000000E-01  4.467900000000E-02 -7.357000000000E-02
  53 T   8 O     3.163750000000E-01  4.685160000000E-01 -4.357500000000E-02
  54 T   8 O     3.415900000000E-02  4.398480000000E-01 -2.072000000000E-01
  55 T   8 O     1.088370000000E-01  2.225800000000E-01 -2.625060000000E-01
  56 T   8 O    -9.864800000000E-02  2.463760000000E-01 -1.953980000000E-01
  57 T   8 O     3.546800000000E-01  2.160000000000E-04 -2.882260000000E-01
  58 T   8 O     4.689610000000E-01  3.910820000000E-01 -2.756970000000E-01
  59 T   8 O     3.243400000000E-02  4.457370000000E-01 -3.496730000000E-01
  60 T   8 O    -3.199800000000E-01  4.046920000000E-01 -2.294620000000E-01
  61 T   8 O    -3.406050000000E-01 -3.458670000000E-01 -1.924090000000E-01
  62 T   8 O    -1.831030000000E-01  4.946920000000E-01 -1.317480000000E-01
  63 T   8 O     7.429700000000E-02 -3.115380000000E-01 -2.153510000000E-01
  64 T   8 O    -3.498670000000E-01  4.617860000000E-01 -3.599320000000E-01
  65 T   8 O     2.936000000000E-01 -2.550690000000E-01 -4.287800000000E-02
  66 T   8 O     3.046960000000E-01  2.330810000000E-01 -6.204700000000E-02
  67 T  14 SI    1.161660000000E-01  9.763300000000E-02  3.455100000000E-02
  68 T  14 SI    2.633220000000E-01  2.576890000000E-01  3.411300000000E-02
  69 T  14 SI    1.823940000000E-01  4.329880000000E-01  9.176500000000E-02
  70 T  14 SI    4.236550000000E-01  1.729670000000E-01  9.406100000000E-02
  71 T  14 SI    5.437700000000E-02  3.084680000000E-01  1.548550000000E-01
  72 T  14 SI    3.001800000000E-01  5.420900000000E-02  1.616650000000E-01
  73 T  14 SI    1.735260000000E-01  1.855240000000E-01  2.233610000000E-01
  74 T  14 SI    4.296620000000E-01  4.257960000000E-01  2.237320000000E-01
  75 T  14 SI    9.403200000000E-02 -3.997270000000E-01  3.819300000000E-02
  76 T  14 SI    2.604460000000E-01 -2.557200000000E-01  4.126200000000E-02
  77 T  14 SI    1.837240000000E-01 -7.451300000000E-02  9.375300000000E-02
  78 T  14 SI    4.380690000000E-01 -3.433640000000E-01  8.471000000000E-02
  79 T  14 SI    4.776300000000E-02 -1.846160000000E-01  1.594330000000E-01
  80 T  14 SI    3.110740000000E-01 -4.476270000000E-01  1.582530000000E-01
  81 T  14 SI    1.787330000000E-01 -3.151670000000E-01  2.196660000000E-01
  82 T  14 SI    4.365700000000E-01 -7.194700000000E-02  2.181250000000E-01
  83 T  14 SI   -4.678920000000E-01  3.106100000000E-02  2.793200000000E-02
  84 T  14 SI   -1.723960000000E-01  3.233750000000E-01  2.265100000000E-02
  85 T  14 SI   -3.217630000000E-01  4.284650000000E-01  8.436400000000E-02
  86 T  14 SI   -5.926600000000E-02  1.808250000000E-01  8.412800000000E-02
  87 T  14 SI   -4.445790000000E-01  3.076530000000E-01  1.534580000000E-01
  88 T  14 SI   -1.884990000000E-01  6.502100000000E-02  1.541410000000E-01
  89 T  14 SI   -3.171740000000E-01  1.877570000000E-01  2.204670000000E-01
  90 T  14 SI   -7.647000000000E-02  4.369370000000E-01  2.182330000000E-01
  91 T  14 SI   -4.215970000000E-01 -4.450360000000E-01  7.681000000000E-03
  92 T  14 SI   -1.688060000000E-01 -1.779340000000E-01  1.501400000000E-02
  93 T  14 SI   -3.056110000000E-01 -5.829500000000E-02  8.383700000000E-02
  94 T  14 SI   -6.962900000000E-02 -3.089740000000E-01  9.008200000000E-02
  95 T  14 SI   -4.422180000000E-01 -1.938350000000E-01  1.449900000000E-01
  96 T  14 SI   -2.005050000000E-01 -4.410880000000E-01  1.499920000000E-01
  97 T  14 SI   -3.200020000000E-01 -3.102810000000E-01  2.161260000000E-01
  98 T  14 SI   -7.150900000000E-02 -5.622500000000E-02  2.262660000000E-01
  99 T  14 SI    5.009500000000E-02  7.199700000000E-02  2.936450000000E-01
 100 T  14 SI    2.963680000000E-01  3.080080000000E-01  2.898720000000E-01
 101 T  14 SI    4.427100000000E-02 -4.327910000000E-01  2.842400000000E-01
 102 T  14 SI    3.023210000000E-01 -1.852320000000E-01  2.847560000000E-01
 103 T  14 SI   -4.474710000000E-01  6.341600000000E-02  2.834990000000E-01
 104 T  14 SI   -1.957420000000E-01  3.146940000000E-01  2.891160000000E-01
 105 T  14 SI   -4.435850000000E-01 -4.374960000000E-01  2.800090000000E-01
 106 T  14 SI   -2.029170000000E-01 -1.813040000000E-01  2.877360000000E-01
 107 T  14 SI    1.617160000000E-01  4.385370000000E-01  3.503140000000E-01
 108 T  14 SI    4.288100000000E-01  1.845440000000E-01  3.512920000000E-01
 109 T  14 SI    5.427000000000E-02  3.284340000000E-01  4.309790000000E-01
 110 T  14 SI    3.129680000000E-01  6.929900000000E-02  4.254750000000E-01
 111 T  14 SI    1.938770000000E-01  2.048290000000E-01  4.914950000000E-01
 112 T  14 SI    4.218580000000E-01  4.411950000000E-01  4.746580000000E-01
 113 T  14 SI    1.881990000000E-01 -4.888000000000E-02  3.532260000000E-01
 114 T  14 SI    4.306680000000E-01 -3.170770000000E-01  3.438380000000E-01
 115 T  14 SI    6.607700000000E-02 -1.745940000000E-01  4.179420000000E-01
 116 T  14 SI    3.003350000000E-01 -4.373940000000E-01  4.064120000000E-01
 117 T  14 SI    2.350160000000E-01 -2.668090000000E-01  4.679670000000E-01
 118 T  14 SI    4.090890000000E-01 -1.082010000000E-01  4.826590000000E-01
 119 T  14 SI   -3.248060000000E-01  4.443000000000E-01  3.490590000000E-01
 120 T  14 SI   -7.221300000000E-02  1.987020000000E-01  3.630280000000E-01
 121 T  14 SI   -4.484910000000E-01  3.162670000000E-01  4.113530000000E-01
 122 T  14 SI   -1.941200000000E-01  5.639900000000E-02  4.244650000000E-01
 123 T  14 SI   -3.944550000000E-01  2.166420000000E-01 -4.933150000000E-01
 124 T  14 SI   -8.040900000000E-02  4.711630000000E-01  4.925680000000E-01
 125 T  14 SI   -3.268130000000E-01 -5.329800000000E-02  3.542650000000E-01
 126 T  14 SI   -7.320500000000E-02 -3.019130000000E-01  3.543100000000E-01
 127 T  14 SI   -4.527450000000E-01 -1.902400000000E-01  4.111520000000E-01
 128 T  14 SI   -2.036540000000E-01 -4.370570000000E-01  4.165370000000E-01
 129 T  14 SI   -3.376170000000E-01 -3.166610000000E-01  4.795970000000E-01
 130 T  14 SI   -6.981500000000E-02 -7.520900000000E-02  4.890130000000E-01
 131 T  14 SI    3.465060000000E-01  2.878250000000E-01 -4.069800000000E-01
 132 T  14 SI    3.281200000000E-02 -3.854000000000E-02 -3.481960000000E-01
 133 T  14 SI    1.818130000000E-01 -2.563100000000E-01 -3.952710000000E-01
 134 T  14 SI   -4.075450000000E-01  4.168760000000E-01 -4.314650000000E-01
 135 T  14 SI   -1.704450000000E-01  1.390380000000E-01 -4.269810000000E-01
 136 T  14 SI   -1.280820000000E-01  4.632290000000E-01 -3.625950000000E-01
 137 T  14 SI    2.905980000000E-01  9.049000000000E-03 -3.585700000000E-01
 138 T  14 SI   -4.160560000000E-01 -2.280880000000E-01 -4.132440000000E-01
 139 T  14 SI   -1.085080000000E-01 -2.587300000000E-01 -4.446790000000E-01
 140 T  14 SI    2.239870000000E-01  1.500250000000E-01 -1.141980000000E-01
 141 T  14 SI   -1.008180000000E-01  4.037880000000E-01 -7.863600000000E-02
 142 T  14 SI    3.585630000000E-01 -5.441600000000E-02 -2.136380000000E-01
 143 T  14 SI   -2.221480000000E-01 -1.523300000000E-02 -2.820080000000E-01
 144 T  14 SI    1.256480000000E-01 -4.457400000000E-01 -1.950580000000E-01
 145 T  14 SI   -1.264310000000E-01 -2.978380000000E-01 -2.931280000000E-01
 146 T  14 SI   -4.753330000000E-01 -2.827220000000E-01 -1.798390000000E-01
 147 T  14 SI    2.817740000000E-01 -3.963060000000E-01 -7.907800000000E-02
 148 T  14 SI   -1.872690000000E-01  1.481740000000E-01 -1.568250000000E-01
 149 T  14 SI    3.974740000000E-01  3.574800000000E-01 -8.765900000000E-02
 150 T  14 SI    4.315900000000E-02  2.867720000000E-01 -2.029570000000E-01
 151 T  14 SI    1.071980000000E-01 -1.579240000000E-01 -2.119850000000E-01
 152 T  14 SI   -4.398100000000E-01  2.261060000000E-01 -9.152600000000E-02
 153 T  14 SI   -3.785040000000E-01  3.566350000000E-01 -2.983810000000E-01
 154 T  14 SI    1.286000000000E-03 -1.941800000000E-02 -8.683000000000E-02
 155 T  14 SI    1.708270000000E-01  4.783100000000E-01 -3.334580000000E-01
 156 T  14 SI    4.275390000000E-01 -1.320670000000E-01 -7.590300000000E-02
 157 T  14 SI    3.881890000000E-01  4.680090000000E-01 -2.273550000000E-01
 158 T  14 SI   -2.513650000000E-01 -4.716050000000E-01 -1.980050000000E-01

 T = ATOM BELONGING TO THE ASYMMETRIC UNIT

 ****   1 SYMMOPS - TRANSLATORS IN FRACTIONAL UNITS
  V INV                   ROTATION MATRICES                       TRANSLATOR
  1  1  1.00  0.00  0.00  0.00  1.00  0.00  0.00  0.00  1.00    0.00  0.00  0.00

 DIRECT LATTICE VECTORS CARTESIAN COMPONENTS (ANGSTROM)
          X                    Y                    Z
   0.110714000000E+02   0.677927728604E-15   0.000000000000E+00
   0.000000000000E+00   0.104844000000E+02   0.000000000000E+00
   0.127799853695E-14   0.127799853695E-14   0.208713000000E+02


 CARTESIAN COORDINATES - PRIMITIVE CELL
 *******************************************************************************
 *      ATOM          X(ANGSTROM)         Y(ANGSTROM)         Z(ANGSTROM)
 *******************************************************************************
   1     1 H     9.189040572000E-01 -4.260377877600E+00 -6.781085370000E-01
   2     1 H    -3.577191482800E+00 -3.613584757200E+00 -3.457330845000E-01
   3     1 H    -1.155488803800E+00  2.538252271200E+00 -8.279916036900E+00
   4     1 H    -3.109801260400E+00  8.760764640000E-01 -8.317421763000E+00
   5     1 H     2.631450352000E-01  4.224940605600E+00 -2.092347825000E+00
   6     1 H    -3.713901130000E+00 -5.577700800000E-02 -6.630519811800E+00
   7     1 H    -3.830704400000E-03 -2.948852828400E+00 -6.282177814800E+00
   8     1 H     4.208183783000E+00 -4.120536950400E+00 -2.570864120100E+00
   9     1 H    -4.905471626400E+00 -1.798001209200E+00 -6.465678284400E+00
  10     1 H     8.535274402000E-01  2.494039556400E+00 -6.422453822100E+00
  11     8 O     2.753866821800E+00  3.877162573200E+00 -7.605647819100E+00
  12     8 O     5.187382684600E+00  3.846348921600E+00 -8.223584398200E+00
  13     8 O    -1.567389169400E+00  4.370243905200E+00 -9.163043353800E+00
  14     8 O     1.632555429800E+00  4.851865788000E-01 -7.704932593200E+00
  15     8 O    -4.689933611200E+00 -3.882237022800E+00 -9.531275699700E+00
  16     8 O    -1.515054661600E+00 -3.675579014400E+00 -7.737825762000E+00
  17     8 O     3.514959143400E+00  3.374582374800E+00 -1.012921757340E+01
  18     8 O    -2.715360492600E+00  1.480973922000E+00  1.029255636720E+01
  19     8 O    -1.092326466800E+00  2.408581212000E-01 -6.858079595700E+00
  20     8 O    -6.640182864000E-01  3.634941480000E-01 -9.379875289500E+00
  21     8 O    -4.556058242400E+00 -2.463320264400E+00 -7.093424374500E+00
  22     8 O     3.145063669400E+00 -1.506010669200E+00 -8.062729289100E+00
  23     8 O     2.149744809400E+00 -3.488013098400E+00 -9.639138578100E+00
  24     8 O    -5.087419014000E-01 -3.976386934800E+00 -1.006526791020E+01
  25     8 O     4.895219510000E-01 -1.872650137200E+00 -8.236211534700E+00
  26     8 O    -2.973058399000E+00 -2.308528582800E+00 -9.552564425700E+00
  27     8 O    -5.532456079800E+00 -1.229715276000E+00 -9.396655814700E+00
  28     8 O     3.949345522400E+00  1.397004362400E+00 -8.215820274600E+00
  29     8 O     2.767639643400E+00 -1.673446537200E+00 -4.270977604200E+00
  30     8 O     1.368535754000E+00  2.591575929600E+00 -2.919226988400E+00
  31     8 O     2.054220770200E+00 -3.905187374400E+00 -7.172693571900E+00
  32     8 O    -8.399539038000E-01  4.725015032400E+00 -2.241577620000E-02
  33     8 O     3.416789039600E+00  7.581164796000E-01 -3.461108550300E+00
  34     8 O    -3.921943807400E+00  2.227054310400E+00 -6.585834358500E+00
  35     8 O     1.733825525600E+00 -4.341401320800E+00 -2.543209647600E+00
  36     8 O    -2.530445969800E+00  4.821461028000E-01 -4.378047373200E+00
  37     8 O     3.931498425600E+00  4.122665283600E+00 -3.361698548400E+00
  38     8 O     2.544794504200E+00  5.170140718800E+00 -5.237130952500E+00
  39     8 O     8.082675570000E-01 -1.100170029600E+00 -5.867193756900E+00
  40     8 O    -6.031809434000E-01 -1.107928485600E+00 -6.160790334000E-01
  41     8 O    -1.783137541200E+00 -4.486306213200E+00 -5.316796704600E+00
  42     8 O     4.710260701600E+00 -4.053887619600E+00 -4.373601786300E+00
  43     8 O    -2.144696251000E+00 -1.777294519200E+00 -5.563411985400E+00
  44     8 O    -5.073358336000E+00  1.224881967600E+00 -7.879124463000E-01
  45     8 O     5.258859643000E+00 -1.103241958800E+00 -7.179727200000E-03
  46     8 O     5.373094348200E+00 -1.481959455600E+00 -4.441016085300E+00
  47     8 O    -5.345615133400E+00 -2.689133271600E+00 -2.158092420000E+00
  48     8 O    -1.110616419600E+00  9.158752464000E-01 -2.134653950100E+00
  49     8 O    -5.238510409800E+00  4.039125584400E+00 -9.722686392000E-01
  50     8 O    -3.353394203200E+00  2.184246505200E+00 -2.461665478500E+00
  51     8 O     4.196614170000E-01 -9.454936764000E-01 -3.204328946400E+00
  52     8 O     1.554690273600E+00  4.684325076000E-01 -1.535501541000E+00
  53     8 O     3.502714175000E+00  4.912109150400E+00 -9.094668975000E-01
  54     8 O     3.781879526000E-01  4.611542371200E+00 -4.324533360000E+00
  55     8 O     1.204977961800E+00  2.333617752000E+00 -5.478841477800E+00
  56     8 O    -1.092171467200E+00  2.583104534400E+00 -4.078210277400E+00
  57     8 O     3.926804152000E+00  2.264630400000E-03 -6.015651313800E+00
  58     8 O     5.192054815400E+00  4.100260120800E+00 -5.754154796100E+00
  59     8 O     3.590897876000E-01  4.673285002800E+00 -7.298130084900E+00
  60     8 O    -3.542626572000E+00  4.242952804800E+00 -4.789170240600E+00
  61     8 O    -3.770974197000E+00 -3.626207974800E+00 -4.015825961700E+00
  62     8 O    -2.027206554200E+00  5.186548804800E+00 -2.749752032400E+00
  63     8 O     8.225718058000E-01 -3.266289007200E+00 -4.494655326300E+00
  64     8 O    -3.873517503800E+00  4.841549138400E+00 -7.512248751600E+00
  65     8 O     3.250563040000E+00 -2.674245423600E+00 -8.949196014000E-01
  66     8 O     3.373411294400E+00  2.443714436400E+00 -1.295001551100E+00
  67    14 SI    1.286120252400E+00  1.023623425200E+00  7.211242863000E-01
  68    14 SI    2.915343190800E+00  2.701714551600E+00  7.119826569000E-01
  69    14 SI    2.019356931600E+00  4.539619387200E+00  1.915254844500E+00
  70    14 SI    4.690453967000E+00  1.813455214800E+00  1.963175349300E+00
  71    14 SI    6.020295178000E-01  3.234101899200E+00  3.232025161500E+00
  72    14 SI    3.323412852000E+00  5.683488396000E-01  3.374158714500E+00
  73    14 SI    1.921175756400E+00  1.945107825600E+00  4.661834439300E+00
  74    14 SI    4.756959866800E+00  4.464215582400E+00  4.669577691600E+00
  75    14 SI    1.041065884800E+00 -4.190897758800E+00  7.971375609000E-01
  76    14 SI    2.883501844400E+00 -2.681070768000E+00  8.611915806000E-01
  77    14 SI    2.034081893600E+00 -7.812240972000E-01  1.956746988900E+00
  78    14 SI    4.850037126600E+00 -3.599965521600E+00  1.768007823000E+00
  79    14 SI    5.288032782000E-01 -1.935587990400E+00  3.327573972900E+00
  80    14 SI    3.444024683600E+00 -4.693100518800E+00  3.302945838900E+00
  81    14 SI    1.978824536200E+00 -3.304336894800E+00  4.584714985800E+00
  82    14 SI    4.833441098000E+00 -7.543211268000E-01  4.552552312500E+00
  83    14 SI   -5.180219488800E+00  3.256559484000E-01  5.829771516000E-01
  84    14 SI   -1.908665074400E+00  3.390392850000E+00  4.727558163000E-01
  85    14 SI   -3.562366878200E+00  4.492198446000E+00  1.760786353200E+00
  86    14 SI   -6.561575924000E-01  1.895841630000E+00  1.755860726400E+00
  87    14 SI   -4.922111940600E+00  3.225557113200E+00  3.202867955400E+00
  88    14 SI   -2.086947828600E+00  6.817061724000E-01  3.217123053300E+00
  89    14 SI   -3.511560223600E+00  1.968519490800E+00  4.601432897100E+00
  90    14 SI   -8.466299580000E-01  4.581022282800E+00  4.554806412900E+00
  91    14 SI   -4.667669025800E+00 -4.665935438400E+00  1.603124553000E-01
  92    14 SI   -1.868918748400E+00 -1.865531229600E+00  3.133616982000E-01
  93    14 SI   -3.383541625400E+00 -6.111880980000E-01  1.749787178100E+00
  94    14 SI   -7.708905106000E-01 -3.239407005600E+00  1.880128446600E+00
  95    14 SI   -4.895972365200E+00 -2.032243674000E+00  3.026129787000E+00
  96    14 SI   -2.219871057000E+00 -4.624543027200E+00  3.130528029600E+00
  97    14 SI   -3.542870142800E+00 -3.253110116400E+00  4.510830583800E+00
  98    14 SI   -7.917047426000E-01 -5.894853900000E-01  4.722465565800E+00
  99    14 SI    5.546217830000E-01  7.548453468000E-01  6.128752888500E+00
 100    14 SI    3.281208675200E+00  3.229279075200E+00  6.050005473600E+00
 101    14 SI    4.901419494000E-01 -4.537553960400E+00  5.932458312000E+00
 102    14 SI    3.347116719400E+00 -1.942046380800E+00  5.943227902800E+00
 103    14 SI   -4.954130429400E+00  6.648787104000E-01  5.916992678700E+00
 104    14 SI   -2.167137978800E+00  3.299377773600E+00  6.034226770800E+00
 105    14 SI   -4.911106969000E+00 -4.586883062400E+00  5.844151841700E+00
 106    14 SI   -2.246575273800E+00 -1.900863657600E+00  6.005424376800E+00
 107    14 SI    1.790422522400E+00  4.597797322800E+00  7.311508588200E+00
 108    14 SI    4.747527034000E+00  1.934833113600E+00  7.331920719600E+00
 109    14 SI    6.008448780000E-01  3.443433429600E+00  8.995092002700E+00
 110    14 SI    3.464993915200E+00  7.265584356000E-01  8.880216367500E+00
 111    14 SI    2.146489817800E+00  2.147509167600E+00  1.025813959350E+01
 112    14 SI    4.670558661200E+00  4.625664858000E+00  9.906729515400E+00
 113    14 SI    2.083626408600E+00 -5.124774720000E-01  7.372285813800E+00
 114    14 SI    4.768097695200E+00 -3.324362098800E+00  7.176346049400E+00
 115    14 SI    7.315648978000E-01 -1.830513333600E+00  8.722992864600E+00
 116    14 SI    3.325128919000E+00 -4.585813653600E+00  8.482346775600E+00
 117    14 SI    2.601956142400E+00 -2.797332279600E+00  9.767079647100E+00
 118    14 SI    4.529187954600E+00 -1.134422564400E+00  1.007372078670E+01
 119    14 SI   -3.596057148400E+00  4.658218920000E+00  7.285315106700E+00
 120    14 SI   -7.994990082000E-01  2.083271248800E+00  7.576866296400E+00
 121    14 SI   -4.965423257400E+00  3.315869734800E+00  8.585471868900E+00
 122    14 SI   -2.149180168000E+00  5.913096756000E-01  8.859136354500E+00
 123    14 SI   -4.367169087000E+00  2.271361384800E+00 -1.029612535950E+01
 124    14 SI   -8.902402026000E-01  4.939861357200E+00  1.028053449840E+01
 125    14 SI   -3.618277448200E+00 -5.587975512000E-01  7.393971094500E+00
 126    14 SI   -8.104818370000E-01 -3.165376657200E+00  7.394910303000E+00
 127    14 SI   -5.012520993000E+00 -1.994552256000E+00  8.581276737600E+00
 128    14 SI   -2.254734895600E+00 -4.582280410800E+00  8.693668688100E+00
 129    14 SI   -3.737892853800E+00 -3.320000588400E+00  1.000981286610E+01
 130    14 SI   -7.729497910000E-01 -7.885212396000E-01  1.020633702690E+01
 131    14 SI    3.836306528400E+00  3.017672430000E+00 -8.494201674000E+00
 132    14 SI    3.632747768000E-01 -4.040687760000E-01 -7.267303174800E+00
 133    14 SI    2.012924448200E+00 -2.687256564000E+00 -8.249819622300E+00
 134    14 SI   -4.512093713000E+00  4.370694734400E+00 -9.005235454500E+00
 135    14 SI   -1.887064773000E+00  1.457730007200E+00 -8.911648545300E+00
 136    14 SI   -1.418047054800E+00  4.856678127600E+00 -7.567829023500E+00
 137    14 SI    3.217326697200E+00  9.487333560000E-02 -7.483822041000E+00
 138    14 SI   -4.606322398400E+00 -2.391365827200E+00 -8.624939497200E+00
 139    14 SI   -1.201335471200E+00 -2.712628812000E+00 -9.281028812700E+00
 140    14 SI    2.479849671800E+00  1.572922110000E+00 -2.383460717400E+00
 141    14 SI   -1.116196405200E+00  4.233474907200E+00 -1.641235546800E+00
 142    14 SI    3.969794398200E+00 -5.705191104000E-01 -4.458902789400E+00
 143    14 SI   -2.459489367200E+00 -1.597088652000E-01 -5.885873570400E+00
 144    14 SI    1.391099267200E+00 -4.673316456000E+00 -4.071114035400E+00
 145    14 SI   -1.399768173400E+00 -3.122652727200E+00 -6.117962426400E+00
 146    14 SI   -5.262601776200E+00 -2.964170536800E+00 -3.753473720700E+00
 147    14 SI    3.119632663600E+00 -4.155030626400E+00 -1.650460661400E+00
 148    14 SI   -2.073330006600E+00  1.553515485600E+00 -3.273141622500E+00
 149    14 SI    4.400593643600E+00  3.747963312000E+00 -1.829557286700E+00
 150    14 SI    4.778305526000E-01  3.006632356800E+00 -4.235976434100E+00
 151    14 SI    1.186831937200E+00 -1.655738385600E+00 -4.424402530500E+00
 152    14 SI   -4.869312434000E+00  2.370585746400E+00 -1.910266603800E+00
 153    14 SI   -4.190569185600E+00  3.739103994000E+00 -6.227599365300E+00
 154    14 SI    1.423782040000E-02 -2.035860792000E-01 -1.812254979000E+00
 155    14 SI    1.891294047800E+00  5.014793364000E+00 -6.959701955400E+00
 156    14 SI    4.733455284600E+00 -1.384643254800E+00 -1.584194283900E+00
 157    14 SI    4.297795694600E+00  4.906793559600E+00 -4.745194411500E+00
 158    14 SI   -2.782962461000E+00 -4.944495462000E+00 -4.132621756500E+00

 *******************************************************************************
 LOCAL ATOMIC FUNCTIONS BASIS SET
 *******************************************************************************
   ATOM  X(AU)  Y(AU)  Z(AU)    NO. TYPE  EXPONENT  S COEF   P COEF   D/F/G COEF
 *******************************************************************************
   1 H   1.736 -8.051 -1.281
                                  1 S  
                                         1.873E+01 3.349E-02 0.000E+00 0.000E+00
                                         2.825E+00 2.347E-01 0.000E+00 0.000E+00
                                         6.401E-01 8.138E-01 0.000E+00 0.000E+00
                                  2 S  
                                         1.613E-01 1.000E+00 0.000E+00 0.000E+00
                             3-   5 P  
                                         1.100E+00 0.000E+00 1.000E+00 0.000E+00
   2 H  -6.760 -6.829 -0.653
   3 H  -2.184  4.797-15.647
   4 H  -5.877  1.656-15.718
   5 H   0.497  7.984 -3.954
   6 H  -7.018 -0.105-12.530
   7 H  -0.007 -5.573-11.872
   8 H   7.952 -7.787 -4.858
   9 H  -9.270 -3.398-12.218
  10 H   1.613  4.713-12.137
  11 O   5.204  7.327-14.373
                                 51 S  
                                         8.020E+03 1.080E-03 0.000E+00 0.000E+00
                                         1.338E+03 8.040E-03 0.000E+00 0.000E+00
                                         2.554E+02 5.324E-02 0.000E+00 0.000E+00
                                         6.922E+01 1.681E-01 0.000E+00 0.000E+00
                                         2.390E+01 3.581E-01 0.000E+00 0.000E+00
                                         9.264E+00 3.855E-01 0.000E+00 0.000E+00
                                         3.851E+00 1.468E-01 0.000E+00 0.000E+00
                                         1.212E+00 7.280E-02 0.000E+00 0.000E+00
                            52-  55 SP 
                                         4.943E+01-8.830E-03 9.580E-03 0.000E+00
                                         1.047E+01-9.150E-02 6.960E-02 0.000E+00
                                         3.235E+00-4.020E-02 2.065E-01 0.000E+00
                                         1.217E+00 3.790E-01 3.470E-01 0.000E+00
                            56-  59 SP 
                                         4.763E-01 1.000E+00 1.000E+00 0.000E+00
                            60-  63 SP 
                                         1.900E-01 1.000E+00 1.000E+00 0.000E+00
  12 O   9.803  7.269-15.540
  13 O  -2.962  8.259-17.316
  14 O   3.085  0.917-14.560
  15 O  -8.863 -7.336-18.012
  16 O  -2.863 -6.946-14.622
  17 O   6.642  6.377-19.141
  18 O  -5.131  2.799 19.450
  19 O  -2.064  0.455-12.960
  20 O  -1.255  0.687-17.725
  21 O  -8.610 -4.655-13.405
  22 O   5.943 -2.846-15.236
  23 O   4.062 -6.591-18.215
  24 O  -0.961 -7.514-19.021
  25 O   0.925 -3.539-15.564
  26 O  -5.618 -4.362-18.052
  27 O -10.455 -2.324-17.757
  28 O   7.463  2.640-15.526
  29 O   5.230 -3.162 -8.071
  30 O   2.586  4.897 -5.517
  31 O   3.882 -7.380-13.554
  32 O  -1.587  8.929 -0.042
  33 O   6.457  1.433 -6.541
  34 O  -7.411  4.209-12.445
  35 O   3.276 -8.204 -4.806
  36 O  -4.782  0.911 -8.273
  37 O   7.429  7.791 -6.353
  38 O   4.809  9.770 -9.897
  39 O   1.527 -2.079-11.087
  40 O  -1.140 -2.094 -1.164
  41 O  -3.370 -8.478-10.047
  42 O   8.901 -7.661 -8.265
  43 O  -4.053 -3.359-10.513
  44 O  -9.587  2.315 -1.489
  45 O   9.938 -2.085 -0.014
  46 O  10.154 -2.800 -8.392
  47 O -10.102 -5.082 -4.078
  48 O  -2.099  1.731 -4.034
  49 O  -9.899  7.633 -1.837
  50 O  -6.337  4.128 -4.652
  51 O   0.793 -1.787 -6.055
  52 O   2.938  0.885 -2.902
  53 O   6.619  9.283 -1.719
  54 O   0.715  8.715 -8.172
  55 O   2.277  4.410-10.354
  56 O  -2.064  4.881 -7.707
  57 O   7.421  0.004-11.368
  58 O   9.812  7.748-10.874
  59 O   0.679  8.831-13.791
  60 O  -6.695  8.018 -9.050
  61 O  -7.126 -6.853 -7.589
  62 O  -3.831  9.801 -5.196
  63 O   1.554 -6.172 -8.494
  64 O  -7.320  9.149-14.196
  65 O   6.143 -5.054 -1.691
  66 O   6.375  4.618 -2.447
  67 SI  2.430  1.934  1.363
                                779 S  
                                         8.765E+04 2.370E-04 0.000E+00 0.000E+00
                                         1.285E+04 1.920E-03 0.000E+00 0.000E+00
                                         2.786E+03 1.090E-02 0.000E+00 0.000E+00
                                         7.280E+02 4.960E-02 0.000E+00 0.000E+00
                                         2.195E+02 1.668E-01 0.000E+00 0.000E+00
                                         7.590E+01 3.630E-01 0.000E+00 0.000E+00
                                         2.946E+01 4.051E-01 0.000E+00 0.000E+00
                                         1.199E+01 1.504E-01 0.000E+00 0.000E+00
                           780- 783 SP 
                                         1.660E+02-8.840E-03 9.090E-03 0.000E+00
                                         3.937E+01-8.590E-02 6.010E-02 0.000E+00
                                         1.271E+01-7.120E-02 1.952E-01 0.000E+00
                                         4.718E+00 4.147E-01 3.384E-01 0.000E+00
                                         1.848E+00 6.168E-01 3.006E-01 0.000E+00
                                         7.365E-01 1.154E-01 6.480E-02 0.000E+00
                           784- 787 SP 
                                         4.175E+00-1.990E-02-8.700E-03 0.000E+00
                                         1.447E+00-1.864E-01-4.380E-03 0.000E+00
                                         5.023E-01 9.670E-02 2.207E-01 0.000E+00
                           788- 791 SP 
                                         3.220E-01 1.000E+00 1.000E+00 0.000E+00
                           792- 795 SP 
                                         1.300E-01 1.000E+00 1.000E+00 0.000E+00
                           796- 800 D  
                                         6.000E-01 0.000E+00 0.000E+00 1.000E+00
  68 SI  5.509  5.106  1.345
  69 SI  3.816  8.579  3.619
  70 SI  8.864  3.427  3.710
  71 SI  1.138  6.112  6.108
  72 SI  6.280  1.074  6.376
  73 SI  3.630  3.676  8.810
  74 SI  8.989  8.436  8.824
  75 SI  1.967 -7.920  1.506
  76 SI  5.449 -5.066  1.627
  77 SI  3.844 -1.476  3.698
  78 SI  9.165 -6.803  3.341
  79 SI  0.999 -3.658  6.288
  80 SI  6.508 -8.869  6.242
  81 SI  3.739 -6.244  8.664
  82 SI  9.134 -1.425  8.603
  83 SI -9.789  0.615  1.102
  84 SI -3.607  6.407  0.893
  85 SI -6.732  8.489  3.327
  86 SI -1.240  3.583  3.318
  87 SI -9.301  6.095  6.053
  88 SI -3.944  1.288  6.079
  89 SI -6.636  3.720  8.695
  90 SI -1.600  8.657  8.607
  91 SI -8.821 -8.817  0.303
  92 SI -3.532 -3.525  0.592
  93 SI -6.394 -1.155  3.307
  94 SI -1.457 -6.122  3.553
  95 SI -9.252 -3.840  5.719
  96 SI -4.195 -8.739  5.916
  97 SI -6.695 -6.147  8.524
  98 SI -1.496 -1.114  8.924
  99 SI  1.048  1.426 11.582
 100 SI  6.201  6.102 11.433
 101 SI  0.926 -8.575 11.211
 102 SI  6.325 -3.670 11.231
 103 SI -9.362  1.256 11.181
 104 SI -4.095  6.235 11.403
 105 SI -9.281 -8.668 11.044
 106 SI -4.245 -3.592 11.349
 107 SI  3.383  8.689 13.817
 108 SI  8.972  3.656 13.855
 109 SI  1.135  6.507 16.998
 110 SI  6.548  1.373 16.781
 111 SI  4.056  4.058 19.385
 112 SI  8.826  8.741 18.721
 113 SI  3.937 -0.968 13.932
 114 SI  9.010 -6.282 13.561
 115 SI  1.382 -3.459 16.484
 116 SI  6.284 -8.666 16.029
 117 SI  4.917 -5.286 18.457
 118 SI  8.559 -2.144 19.037
 119 SI -6.796  8.803 13.767
 120 SI -1.511  3.937 14.318
 121 SI -9.383  6.266 16.224
 122 SI -4.061  1.117 16.741
 123 SI -8.253  4.292-19.457
 124 SI -1.682  9.335 19.427
 125 SI -6.838 -1.056 13.973
 126 SI -1.532 -5.982 13.974
 127 SI -9.472 -3.769 16.216
 128 SI -4.261 -8.659 16.429
 129 SI -7.064 -6.274 18.916
 130 SI -1.461 -1.490 19.287
 131 SI  7.250  5.703-16.052
 132 SI  0.686 -0.764-13.733
 133 SI  3.804 -5.078-15.590
 134 SI -8.527  8.259-17.017
 135 SI -3.566  2.755-16.841
 136 SI -2.680  9.178-14.301
 137 SI  6.080  0.179-14.142
 138 SI -8.705 -4.519-16.299
 139 SI -2.270 -5.126-17.539
 140 SI  4.686  2.972 -4.504
 141 SI -2.109  8.000 -3.101
 142 SI  7.502 -1.078 -8.426
 143 SI -4.648 -0.302-11.123
 144 SI  2.629 -8.831 -7.693
 145 SI -2.645 -5.901-11.561
 146 SI -9.945 -5.601 -7.093
 147 SI  5.895 -7.852 -3.119
 148 SI -3.918  2.936 -6.185
 149 SI  8.316  7.083 -3.457
 150 SI  0.903  5.682 -8.005
 151 SI  2.243 -3.129 -8.361
 152 SI -9.202  4.480 -3.610
 153 SI -7.919  7.066-11.768
 154 SI  0.027 -0.385 -3.425
 155 SI  3.574  9.477-13.152
 156 SI  8.945 -2.617 -2.994
 157 SI  8.122  9.272 -8.967
 158 SI -5.259 -9.344 -7.810
 INFORMATION **** TOLINTEG **** COULOMB AND EXCHANGE SERIES TOLERANCES MODIFIED
 INFORMATION **** READM2 **** FULL DIRECT SCF (MONO AND BIEL INT) SELECTED
 INFORMATION **** SMEAR **** FERMI SMEARING ACTIVE
 FERMI SMEARING - TEMPERATURE SMEARING OF FERMI SURFACE  0.1000E-12
 INFORMATION **** MAXCYCLE **** MAX NUMBER OF SCF CYCLES SET TO         150

 MODIFIED BROYDEN MIXING OF THE FOCK MATRIX
 WO PARAMETER(D.D. Johnson, PRB38, 12807,(1988)             1.0000E-04
 % OF FOCK/KS MATRICES MIXING WHEN BROYDEN METHOD IS ON             90
 NUMBER OF SCF ITERATIONS AFTER WHICH BROYDEN METHOD IS ACTIVE      80
 INFORMATION **** TOLDEE **** SCF TOL ON TOTAL ENERGY SET TO           7
 *******************************************************************************
 N. OF ATOMS PER CELL      158  COULOMB OVERLAP TOL         (T1) 10** -8
 NUMBER OF SHELLS          806  COULOMB PENETRATION TOL     (T2) 10** -8
 NUMBER OF AO             2802  EXCHANGE OVERLAP TOL        (T3) 10** -8
 N. OF ELECTRONS PER CELL 1746  EXCHANGE PSEUDO OVP (F(G))  (T4) 10** -8
 CORE ELECTRONS PER CELL  1032  EXCHANGE PSEUDO OVP (P(G))  (T5) 10**-16
 N. OF SYMMETRY OPERATORS    1  POLE ORDER IN MONO ZONE                4
 *******************************************************************************
 TYPE OF CALCULATION :  UNRESTRICTED OPEN SHELL
 KOHN-SHAM HAMILTONIAN

 (EXCHANGE)[CORRELATION] FUNCTIONAL:(BECKE)[LEE-YANG-PARR]

 NON-LOCAL WEIGHTING FACTOR (EXCHANGE) =           0.9000
 NON-LOCAL WEIGHTING FACTOR [CORRELATION] =        0.8100

 HYBRID EXCHANGE - PERCENTAGE OF FOCK EXCHANGE    20.0000

 SPIN POLARIZED DFT SELECTED

 CAPPA:IS1  2;IS2  2;IS3  2; K PTS MONK NET    8; SYMMOPS: K SPACE  2;G SPACE  1

 *******************************************************************************
 MAX NUMBER OF SCF CYCLES     150  CONVERGENCE ON DELTAP        10**-17
 WEIGHT OF F(I) IN F(I+1)      92% CONVERGENCE ON ENERGY        10**- 7
 SHRINK. FACT.(MONKH.)    2  2  2  NUMBER OF K POINTS IN THE IBZ      8
 SHRINKING FACTOR(GILAT NET)    2  NUMBER OF K POINTS(GILAT NET)      8
 *******************************************************************************
 *** K POINTS COORDINATES (OBLIQUE COORDINATES IN UNITS OF IS =  2)
   1-R(  0  0  0)   2-R(  1  0  0)   3-R(  0  1  0)   4-R(  1  1  0)
   5-R(  0  0  1)   6-R(  1  0  1)   7-R(  0  1  1)   8-R(  1  1  1)

 DIRECT LATTICE VECTORS COMPON. (A.U.)     RECIP. LATTICE VECTORS COMPON. (A.U.) 
        X            Y            Z              X            Y            Z
   20.9219139    0.0000000    0.0000000      0.3003160    0.0000000    0.0000000
    0.0000000   19.8126447    0.0000000      0.0000000    0.3171301    0.0000000
    0.0000000    0.0000000   39.4410411      0.0000000    0.0000000    0.1593058

 DISK SPACE FOR EIGENVECTORS (FTN 10)   62809632 REALS

 SYMMETRY ADAPTION OF THE BLOCH FUNCTIONS DISABLED
 TTTTTTTTTTTTTTTTTTTTTTTTTTTTTT gordsh1     TELAPSE        4.53 TCPU        0.56

 DIMENSIONS  P(G)= 6679656 F(G)= 1195752 P(G),F(G) (IRR) 3348359
 MAX G-VECTOR INDEX FOR 1- AND 2-ELECTRON INTEGRALS  43

 TTTTTTTTTTTTTTTTTTTTTTTTTTTTTT INPUT       TELAPSE        4.94 TCPU        0.97

 NEIGHBORS OF THE NON-EQUIVALENT ATOMS

 N = NUMBER OF NEIGHBORS AT DISTANCE R
    ATOM  N     R/ANG      R/AU   NEIGHBORS (ATOM LABELS AND CELL INDICES)
   1 H    1     1.4819     2.8004  75 SI   0 0 0
   1 H    1     2.0370     3.8493  35 O    0 0 0
   1 H    1     2.4022     4.5395  32 O    0-1 0
   1 H    1     2.4083     4.5510 147 SI   0 0 0
   1 H    1     2.5350     4.7905   5 H    0-1 0
   1 H    1     2.8283     5.3448  65 O    0 0 0

   2 H    1     1.5977     3.0192  91 SI   0 0 0
   2 H    1     2.5315     4.7838  92 SI   0 0 0
   2 H    1     2.6957     5.0941  47 O    0 0 0
   2 H    1     3.1773     6.0043  85 SI   0-1 0
   2 H    1     3.3194     6.2728  62 O    0-1 0
   2 H    1     3.3423     6.3160  49 O    0-1 0

   3 H    1     1.4498     2.7397 135 SI   0 0 0
   3 H    1     2.0750     3.9212  13 O    0 0 0
   3 H    1     2.4395     4.6100 136 SI   0 0 0
   3 H    1     2.4862     4.6982  20 O    0 0 0
   3 H    1     2.5658     4.8487   4 H    0 0 0
   3 H    1     2.7025     5.1070  19 O    0 0 0

   4 H    1     1.4787     2.7943 135 SI   0 0 0
   4 H    1     2.0196     3.8166   6 H    0 0 0
   4 H    1     2.3416     4.4250  34 O    0 0 0
   4 H    1     2.3738     4.4859  18 O    0 0-1
   4 H    1     2.5658     4.8487   3 H    0 0 0
   4 H    1     2.5697     4.8560  19 O    0 0 0

   5 H    1     1.4513     2.7425 141 SI   0 0 0
   5 H    1     2.1386     4.0413  30 O    0 0 0
   5 H    1     2.2683     4.2865  54 O    0 0 0
   5 H    1     2.3982     4.5320  32 O    0 0 0
   5 H    1     2.4587     4.6462  35 O    0 1 0
   5 H    1     2.4750     4.6770 150 SI   0 0 0

   6 H    1     1.4625     2.7637 143 SI   0 0 0
   6 H    1     2.0196     3.8166   4 H    0 0 0
   6 H    1     2.1172     4.0008   9 H    0 0 0
   6 H    1     2.2927     4.3326  34 O    0 0 0
   6 H    1     2.5622     4.8418  43 O    0 0 0
   6 H    1     2.5923     4.8986  21 O    0 0 0

   7 H    1     1.4163     2.6764 145 SI   0 0 0
   7 H    1     1.9947     3.7695  63 O    0 0 0
   7 H    1     2.0614     3.8955  39 O    0 0 0
   7 H    1     2.2205     4.1962  16 O    0 0 0
   7 H    1     2.2847     4.3175  25 O    0 0 0
   7 H    1     2.4379     4.6069  31 O    0 0 0

   8 H    1     1.4259     2.6946 147 SI   0 0 0
   8 H    1     1.8725     3.5386  42 O    0 0 0
   8 H    1     2.1266     4.0187  47 O    1 0 0
   8 H    1     2.3017     4.3495 146 SI   1 0 0
   8 H    1     2.3164     4.3773  53 O    0-1 0
   8 H    1     2.3927     4.5215  37 O    0-1 0

   9 H    1     0.9792     1.8504  21 O    0 0 0
   9 H    1     2.1172     4.0008   6 H    0 0 0
   9 H    1     2.1972     4.1521  46 O   -1 0 0
   9 H    1     2.2592     4.2693 138 SI   0 0 0
   9 H    1     2.9045     5.4888  43 O    0 0 0
   9 H    1     2.9081     5.4955  57 O   -1 0 0

  10 H    1     1.0196     1.9268  55 O    0 0 0
  10 H    1     2.2770     4.3028 150 SI   0 0 0
  10 H    1     2.4001     4.5355  59 O    0 0 0
  10 H    1     2.5074     4.7383  14 O    0 0 0
  10 H    1     2.6314     4.9726  11 O    0 0 0
  10 H    1     2.7365     5.1712   3 H    0 0 0

  11 O    1     1.5670     2.9612 155 SI   0 0 0
  11 O    1     1.6431     3.1051 131 SI   0 0 0
  11 O    1     2.5109     4.7450  12 O    0 0 0
  11 O    1     2.5423     4.8043  59 O    0 0 0
  11 O    1     2.6314     4.9726  10 H    0 0 0
  11 O    1     2.6833     5.0708  17 O    0 0 0

  12 O    1     1.6079     3.0385 131 SI   0 0 0
  12 O    1     1.6638     3.1440 134 SI   1 0 0
  12 O    1     2.3534     4.4473  64 O    1 0 0
  12 O    1     2.4825     4.6912  58 O    0 0 0
  12 O    1     2.5109     4.7450  11 O    0 0 0
  12 O    1     2.5790     4.8735  17 O    0 0 0

  13 O    1     1.6744     3.1642 136 SI   0 0 0
  13 O    1     1.6797     3.1742 124 SI   0 0-1
  13 O    1     2.0750     3.9212   3 H    0 0 0
  13 O    1     2.5505     4.8197  24 O    0 1 0
  13 O    1     2.6983     5.0991  59 O    0 0 0
  13 O    1     2.8250     5.3385  16 O    0 1 0

  14 O    1     1.6104     3.0432 132 SI   0 0 0
  14 O    1     1.6470     3.1125 137 SI   0 0 0
  14 O    1     2.5074     4.7383  10 H    0 0 0
  14 O    1     2.5260     4.7734  22 O    0 0 0
  14 O    1     2.5416     4.8030  28 O    0 0 0
  14 O    1     2.5632     4.8438  39 O    0 0 0

  15 O    1     1.7297     3.2687 129 SI   0 0-1
  15 O    1     1.7467     3.3009 138 SI   0 0 0
  15 O    1     2.2995     4.3455 134 SI   0-1 0
  15 O    1     2.3291     4.4013  26 O    0 0 0
  15 O    1     2.7864     5.2655  27 O    0 0 0
  15 O    1     2.8005     5.2922  64 O    0-1 0

  16 O    1     1.7155     3.2418 145 SI   0 0 0
  16 O    1     1.8459     3.4882 139 SI   0 0 0
  16 O    1     1.9619     3.7075 136 SI   0-1 0
  16 O    1     2.2205     4.1962   7 H    0 0 0
  16 O    1     2.5535     4.8253  24 O    0 0 0
  16 O    1     2.5672     4.8513  41 O    0 0 0

  17 O    1     1.7041     3.2203 131 SI   0 0 0
  17 O    1     1.8970     3.5847 112 SI   0 0-1
  17 O    1     1.9007     3.5918 111 SI   0 0-1
  17 O    1     2.5790     4.8735  12 O    0 0 0
  17 O    1     2.6833     5.0708  11 O    0 0 0
  17 O    1     2.7858     5.2644  28 O    0 0 0

  18 O    1     1.7795     3.3628 122 SI   0 0 0
  18 O    1     1.8529     3.5014 123 SI   0 0 1
  18 O    1     1.8617     3.5180 135 SI   0 0 1
  18 O    1     2.3738     4.4859   4 H    0 0 1
  18 O    1     2.6257     4.9618  20 O    0 0 1
  18 O    1     2.9725     5.6172   3 H    0 0 1

  19 O    1     1.6438     3.1064 132 SI   0 0 0
  19 O    1     1.7248     3.2593 143 SI   0 0 0
  19 O    1     2.5159     4.7543 135 SI   0 0 0
  19 O    1     2.5283     4.7779  39 O    0 0 0
  19 O    1     2.5608     4.8393  20 O    0 0 0
  19 O    1     2.5697     4.8560   4 H    0 0 0

  20 O    1     1.7066     3.2250 135 SI   0 0 0
  20 O    1     1.7293     3.2679 130 SI   0 0-1
  20 O    1     2.4713     4.6701 132 SI   0 0 0
  20 O    1     2.4862     4.6982   3 H    0 0 0
  20 O    1     2.5608     4.8393  19 O    0 0 0
  20 O    1     2.6257     4.9618  18 O    0 0-1

  21 O    1     0.9792     1.8504   9 H    0 0 0
  21 O    1     1.5340     2.8989 138 SI   0 0 0
  21 O    1     2.5923     4.8986   6 H    0 0 0
  21 O    1     2.7893     5.2710  27 O    0 0 0
  21 O    1     2.8239     5.3364  15 O    0 0 0
  21 O    1     2.9287     5.5344  26 O    0 0 0

  22 O    1     1.6468     3.1121 133 SI   0 0 0
  22 O    1     1.7039     3.2199 137 SI   0 0 0
  22 O    1     2.5260     4.7734  14 O    0 0 0
  22 O    1     2.6602     5.0270  57 O    0 0 0
  22 O    1     2.6863     5.0764  25 O    0 0 0
  22 O    1     2.7210     5.1420  23 O    0 0 0

  23 O    1     1.6094     3.0413 133 SI   0 0 0
  23 O    1     1.6817     3.1779 117 SI   0 0-1
  23 O    1     2.5033     4.7306  31 O    0 0 0
  23 O    1     2.7081     5.1176  25 O    0 0 0
  23 O    1     2.7210     5.1420  22 O    0 0 0
  23 O    1     2.7364     5.1710  24 O    0 0 0

  24 O    1     1.6407     3.1004 139 SI   0 0 0
  24 O    1     1.6973     3.2074 124 SI   0-1-1
  24 O    1     2.5505     4.8197  13 O    0-1 0
  24 O    1     2.5535     4.8253  16 O    0 0 0
  24 O    1     2.7364     5.1710  23 O    0 0 0
  24 O    1     2.8067     5.3039 128 SI   0 0-1

  25 O    1     1.7276     3.2646 133 SI   0 0 0
  25 O    1     1.7639     3.3333 132 SI   0 0 0
  25 O    1     2.1578     4.0777 139 SI   0 0 0
  25 O    1     2.2847     4.3175   7 H    0 0 0
  25 O    1     2.5121     4.7472  39 O    0 0 0
  25 O    1     2.6736     5.0524  14 O    0 0 0

  26 O    1     1.8225     3.4439 129 SI   0 0-1
  26 O    1     1.8374     3.4722 139 SI   0 0 0
  26 O    1     1.8801     3.5529 138 SI   0 0 0
  26 O    1     2.3291     4.4013  15 O    0 0 0
  26 O    1     2.6996     5.1015  16 O    0 0 0
  26 O    1     2.7818     5.2569  27 O    0 0 0

  27 O    1     1.6741     3.1636 138 SI   0 0 0
  27 O    1     1.7295     3.2683 118 SI  -1 0-1
  27 O    1     2.7543     5.2049  22 O   -1 0 0
  27 O    1     2.7818     5.2569  26 O    0 0 0
  27 O    1     2.7864     5.2655  15 O    0 0 0
  27 O    1     2.7893     5.2710  21 O    0 0 0

  28 O    1     1.6483     3.1148 131 SI   0 0 0
  28 O    1     1.6635     3.1436 137 SI   0 0 0
  28 O    1     2.5416     4.8030  14 O    0 0 0
  28 O    1     2.6051     4.9229  57 O    0 0 0
  28 O    1     2.7445     5.1863  12 O    0 0 0
  28 O    1     2.7858     5.2644  17 O    0 0 0

  29 O    1     1.5883     3.0015 151 SI   0 0 0
  29 O    1     1.6422     3.1034 142 SI   0 0 0
  29 O    1     2.5240     4.7696  63 O    0 0 0
  29 O    1     2.5915     4.8972  39 O    0 0 0
  29 O    1     2.6180     4.9473  46 O    0 0 0
  29 O    1     2.6438     4.9961  33 O    0 0 0

  30 O    1     1.5999     3.0234 140 SI   0 0 0
  30 O    1     1.6430     3.1048 150 SI   0 0 0
  30 O    1     2.1386     4.0413   5 H    0 0 0
  30 O    1     2.5411     4.8019  52 O    0 0 0
  30 O    1     2.5778     4.8713  55 O    0 0 0
  30 O    1     2.5845     4.8839  66 O    0 0 0

  31 O    1     1.5872     2.9994 155 SI   0-1 0
  31 O    1     1.6264     3.0735 133 SI   0 0 0
  31 O    1     2.4379     4.6069   7 H    0 0 0
  31 O    1     2.4439     4.6183  38 O    0-1 0
  31 O    1     2.5033     4.7306  23 O    0 0 0
  31 O    1     2.5538     4.8259  59 O    0-1 0

  32 O    1     1.7142     3.2394 141 SI   0 0 0
  32 O    1     1.7800     3.3638  84 SI   0 0 0
  32 O    1     2.3982     4.5320   5 H    0 0 0
  32 O    1     2.4022     4.5395   1 H    0 1 0
  32 O    1     2.5826     4.8805  75 SI   0 1 0
  32 O    1     3.0101     5.6883  62 O    0 0 0

  33 O    1     1.6441     3.1069 140 SI   0 0 0
  33 O    1     1.7512     3.3093 142 SI   0 0 0
  33 O    1     2.6438     4.9961  29 O    0 0 0
  33 O    1     2.6943     5.0915  52 O    0 0 0
  33 O    1     2.7124     5.1257  57 O    0 0 0
  33 O    1     2.7450     5.1873  66 O    0 0 0

  34 O    1     1.5770     2.9800 153 SI   0 0 0
  34 O    1     2.2927     4.3326   6 H    0 0 0
  34 O    1     2.3416     4.4250   4 H    0 0 0
  34 O    1     2.7269     5.1530  60 O    0 0 0
  34 O    1     2.7742     5.2425  64 O    0 0 0
  34 O    1     2.8341     5.3556  58 O   -1 0 0

  35 O    1     1.6007     3.0248 144 SI   0 0 0
  35 O    1     1.6590     3.1350 147 SI   0 0 0
  35 O    1     2.0370     3.8493   1 H    0 0 0
  35 O    1     2.4072     4.5489  63 O    0 0 0
  35 O    1     2.4587     4.6462   5 H    0-1 0
  35 O    1     2.4843     4.6947   8 H    0 0 0

  36 O    1     1.6055     3.0339 148 SI   0 0 0
  36 O    1     1.6403     3.0997 143 SI   0 0 0
  36 O    1     2.5637     4.8447  56 O    0 0 0
  36 O    1     2.5805     4.8764  43 O    0 0 0
  36 O    1     2.6007     4.9146   6 H    0 0 0
  36 O    1     2.6901     5.0836  48 O    0 0 0

  37 O    1     1.6319     3.0838 157 SI   0 0 0
  37 O    1     1.6456     3.1097 149 SI   0 0 0
  37 O    1     2.3927     4.5215   8 H    0 1 0
  37 O    1     2.5568     4.8317  38 O    0 0 0
  37 O    1     2.6116     4.9352  53 O    0 0 0
  37 O    1     2.6375     4.9842  42 O    0 1 0

  38 O    1     1.7611     3.3280 144 SI   0 1 0
  38 O    1     1.8397     3.4765 157 SI   0 0 0
  38 O    1     1.8489     3.4939 155 SI   0 0 0
  38 O    1     2.4164     4.5664  54 O    0 0 0
  38 O    1     2.4439     4.6183  31 O    0 1 0
  38 O    1     2.5568     4.8317  37 O    0 0 0

  39 O    1     1.5917     3.0079 151 SI   0 0 0
  39 O    1     1.6257     3.0721 132 SI   0 0 0
  39 O    1     2.0614     3.8955   7 H    0 0 0
  39 O    1     2.5121     4.7472  25 O    0 0 0
  39 O    1     2.5283     4.7779  19 O    0 0 0
  39 O    1     2.5632     4.8438  14 O    0 0 0

  40 O    1     1.6217     3.0645 154 SI   0 0 0
  40 O    1     1.7435     3.2948  92 SI   0 0 0
  40 O    1     2.5806     4.8766  48 O    0 0 0
  40 O    1     2.7878     5.2681  51 O    0 0 0
  40 O    1     2.8261     5.3405  52 O    0 0 0
  40 O    1     3.1466     5.9462  67 SI   0 0 0

  41 O    1     1.6161     3.0540 158 SI   0 0 0
  41 O    1     1.6274     3.0753 145 SI   0 0 0
  41 O    1     2.5266     4.7746  61 O    0 0 0
  41 O    1     2.5406     4.8011  60 O    0-1 0
[...]
  12.9931597  12.6209726  13.1807753  12.6961446  12.7669036  12.6275939
  12.7935279  12.6879456  12.9568266  12.6677935  13.0920822  12.9289197
  12.5511704  12.9706441  12.8762416  12.6399581  12.6392832  13.1688065
  12.6696968  12.6133252
 SUMMED SPIN DENSITY           0.00000000
 TOTAL ATOMIC SPINS  :
   0.0000000   0.0000000   0.0000000   0.0000000   0.0000000   0.0000000
   0.0000000   0.0000000   0.0000000   0.0000000   0.0000000   0.0000000
   0.0000000   0.0000000   0.0000000   0.0000000   0.0000000   0.0000000
   0.0000000   0.0000000   0.0000000   0.0000000   0.0000000   0.0000000
   0.0000000   0.0000000   0.0000000   0.0000000   0.0000000   0.0000000
   0.0000000   0.0000000   0.0000000   0.0000000   0.0000000   0.0000000
   0.0000000   0.0000000   0.0000000   0.0000000   0.0000000   0.0000000
   0.0000000   0.0000000   0.0000000   0.0000000   0.0000000   0.0000000
   0.0000000   0.0000000   0.0000000   0.0000000   0.0000000   0.0000000
   0.0000000   0.0000000   0.0000000   0.0000000   0.0000000   0.0000000
   0.0000000   0.0000000   0.0000000   0.0000000   0.0000000   0.0000000
   0.0000000   0.0000000   0.0000000   0.0000000   0.0000000   0.0000000
   0.0000000   0.0000000   0.0000000   0.0000000   0.0000000   0.0000000
   0.0000000   0.0000000   0.0000000   0.0000000   0.0000000   0.0000000
   0.0000000   0.0000000   0.0000000   0.0000000   0.0000000   0.0000000
   0.0000000   0.0000000   0.0000000   0.0000000   0.0000000   0.0000000
   0.0000000   0.0000000   0.0000000   0.0000000   0.0000000   0.0000000
   0.0000000   0.0000000   0.0000000   0.0000000   0.0000000   0.0000000
   0.0000000   0.0000000   0.0000000   0.0000000   0.0000000   0.0000000
   0.0000000   0.0000000   0.0000000   0.0000000   0.0000000   0.0000000
   0.0000000   0.0000000   0.0000000   0.0000000   0.0000000   0.0000000
   0.0000000   0.0000000   0.0000000   0.0000000   0.0000000   0.0000000
   0.0000000   0.0000000   0.0000000   0.0000000   0.0000000   0.0000000
   0.0000000   0.0000000   0.0000000   0.0000000   0.0000000   0.0000000
   0.0000000   0.0000000   0.0000000   0.0000000   0.0000000   0.0000000
   0.0000000   0.0000000   0.0000000   0.0000000   0.0000000   0.0000000
   0.0000000   0.0000000
 TTTTTTTTTTTTTTTTTTTTTTTTTTTTTT MOQGAD      TELAPSE    13312.33 TCPU    12918.46
 WARNING **** GENBUD **** COUL. BIPO BUFFER TOO SMALL - TO AVOID I/O SET BIPOSIZE =     2147300
 TTTTTTTTTTTTTTTTTTTTTTTTTTTTTT SHELLX      TELAPSE    13401.24 TCPU    13006.35
 TTTTTTTTTTTTTTTTTTTTTTTTTTTTTT MONMO3      TELAPSE    13417.65 TCPU    13022.74
 NUMERICALLY INTEGRATED DENSITY    873.0000778273    873.0000778273
 TTTTTTTTTTTTTTTTTTTTTTTTTTTTTT NUMDFT      TELAPSE    13424.05 TCPU    13029.13
 CYC  58 ETOT(AU) -3.085294343784E+04 DETOT -2.59E-07 tst  7.63E-10 PX  1.89E-04
 TTTTTTTTTTTTTTTTTTTTTTTTTTTTTT FDIK        TELAPSE    13538.97 TCPU    13140.20

    ALPHA      ELECTRONS
 INSULATING STATE
 TOP OF VALENCE BANDS -    BAND    873; K    2; EIG -6.8718814E-02 AU
 TOP OF VALENCE BANDS -    BAND    873; K    1; EIG -7.1766730E-02 AU
 BOTTOM OF VIRTUAL BANDS - BAND    874; K    1; EIG -5.5669906E-02 AU

    BETA       ELECTRONS
 INSULATING STATE
 TOP OF VALENCE BANDS -    BAND    873; K    2; EIG -6.8718814E-02 AU
 TOP OF VALENCE BANDS -    BAND    873; K    1; EIG -7.1766730E-02 AU
 BOTTOM OF VIRTUAL BANDS - BAND    874; K    1; EIG -5.5669906E-02 AU
 TTTTTTTTTTTTTTTTTTTTTTTTTTTTTT PDIG        TELAPSE    13542.08 TCPU    13143.31
 CHARGE NORMALIZATION FACTOR   1.00000000
 TOTAL ATOMIC CHARGES:
   1.0821157   1.0551201   1.0932136   1.0621417   1.1187760   1.0677969
   1.1078037   1.2508034   0.6305445   0.6437588   8.6524422   8.7372250
   8.7815626   8.5260673   8.7054217   8.9144687   8.8231240   8.8943404
   8.8027492   8.8215611   8.5050739   8.7050276   8.6102835   8.6409740
   8.7968833   8.7921963   8.6602639   8.6322905   8.6354881   8.6074504
   8.6090524   8.6923341   8.6885528   8.6562517   8.5690979   8.6760079
   8.6178865   8.9257501   8.7518257   8.7142399   8.7172188   8.6359803
   8.6946025   8.7544523   8.7459070   8.7417936   8.6348746   8.6263214
   8.7031737   8.7003389   8.7044919   8.7118727   8.6669582   8.5721145
   8.5369526   8.6353604   8.6599265   8.6270830   8.7507895   8.7141414
   8.6925170   8.6918596   8.6940263   8.7589123   8.7739312   8.7272065
  14.0388079  13.7387406  13.9035537  14.0472967  14.0109374  14.0059598
  13.9685828  13.9924118  13.7785605  13.7169366  13.9503588  13.9676231
  14.0407589  14.0775543  13.9932504  14.0194469  13.1970325  13.6963124
  14.0917513  14.0148504  14.0041398  14.0105728  14.0061571  14.0151769
  13.5264054  13.6234267  14.0789014  13.9845087  13.9990705  14.0011800
  13.9900150  13.9990311  13.9937218  13.9840052  13.9948980  13.9800017
  13.9973586  13.9870009  13.9968838  14.0018234  14.0010267  13.9924743
  14.0926224  14.0327092  13.7596251  13.7358936  14.0594162  14.0324776
  14.0426545  14.0464289  13.6889452  13.5975722  14.0267876  14.0294193
  14.1218508  13.6499765  13.6703971  13.2469581  14.0379796  13.9959456
  14.0624103  14.0827497  13.4322256  13.5368879  12.5921709  12.6983078
  12.6840829  13.1538205  12.8553696  13.0155179  12.6204911  12.7083972
  12.9931344  12.6208818  13.1807490  12.6960794  12.7668516  12.6275247
  12.7934774  12.6879107  12.9567649  12.6677233  13.0920059  12.9288649
  12.5510827  12.9706077  12.8761905  12.6398760  12.6392268  13.1687887
  12.6696243  12.6132643
 SUMMED SPIN DENSITY           0.00000000
 TOTAL ATOMIC SPINS  :
   0.0000000   0.0000000   0.0000000   0.0000000   0.0000000   0.0000000
   0.0000000   0.0000000   0.0000000   0.0000000   0.0000000   0.0000000
   0.0000000   0.0000000   0.0000000   0.0000000   0.0000000   0.0000000
   0.0000000   0.0000000   0.0000000   0.0000000   0.0000000   0.0000000
   0.0000000   0.0000000   0.0000000   0.0000000   0.0000000   0.0000000
   0.0000000   0.0000000   0.0000000   0.0000000   0.0000000   0.0000000
   0.0000000   0.0000000   0.0000000   0.0000000   0.0000000   0.0000000
   0.0000000   0.0000000   0.0000000   0.0000000   0.0000000   0.0000000
   0.0000000   0.0000000   0.0000000   0.0000000   0.0000000   0.0000000
   0.0000000   0.0000000   0.0000000   0.0000000   0.0000000   0.0000000
   0.0000000   0.0000000   0.0000000   0.0000000   0.0000000   0.0000000
   0.0000000   0.0000000   0.0000000   0.0000000   0.0000000   0.0000000
   0.0000000   0.0000000   0.0000000   0.0000000   0.0000000   0.0000000
   0.0000000   0.0000000   0.0000000   0.0000000   0.0000000   0.0000000
   0.0000000   0.0000000   0.0000000   0.0000000   0.0000000   0.0000000
   0.0000000   0.0000000   0.0000000   0.0000000   0.0000000   0.0000000
   0.0000000   0.0000000   0.0000000   0.0000000   0.0000000   0.0000000
   0.0000000   0.0000000   0.0000000   0.0000000   0.0000000   0.0000000
   0.0000000   0.0000000   0.0000000   0.0000000   0.0000000   0.0000000
   0.0000000   0.0000000   0.0000000   0.0000000   0.0000000   0.0000000
   0.0000000   0.0000000   0.0000000   0.0000000   0.0000000   0.0000000
   0.0000000   0.0000000   0.0000000   0.0000000   0.0000000   0.0000000
   0.0000000   0.0000000   0.0000000   0.0000000   0.0000000   0.0000000
   0.0000000   0.0000000   0.0000000   0.0000000   0.0000000   0.0000000
   0.0000000   0.0000000   0.0000000   0.0000000   0.0000000   0.0000000
   0.0000000   0.0000000   0.0000000   0.0000000   0.0000000   0.0000000
   0.0000000   0.0000000
 TTTTTTTTTTTTTTTTTTTTTTTTTTTTTT MOQGAD      TELAPSE    13542.60 TCPU    13143.81
 WARNING **** GENBUD **** COUL. BIPO BUFFER TOO SMALL - TO AVOID I/O SET BIPOSIZE =     2147300
 TTTTTTTTTTTTTTTTTTTTTTTTTTTTTT SHELLX      TELAPSE    13632.78 TCPU    13231.86
 TTTTTTTTTTTTTTTTTTTTTTTTTTTTTT MONMO3      TELAPSE    13642.35 TCPU    13241.42
 NUMERICALLY INTEGRATED DENSITY    873.0000778269    873.0000778269
 TTTTTTTTTTTTTTTTTTTTTTTTTTTTTT NUMDFT      TELAPSE    13648.58 TCPU    13247.64
 CYC  59 ETOT(AU) -3.085294343795E+04 DETOT -1.04E-07 tst  6.76E-10 PX  1.84E-04
 TTTTTTTTTTTTTTTTTTTTTTTTTTTTTT FDIK        TELAPSE    13767.85 TCPU    13361.39

    ALPHA      ELECTRONS
 INSULATING STATE
 TOP OF VALENCE BANDS -    BAND    873; K    2; EIG -6.8688325E-02 AU
 TOP OF VALENCE BANDS -    BAND    873; K    1; EIG -7.1735708E-02 AU
 BOTTOM OF VIRTUAL BANDS - BAND    874; K    1; EIG -5.5619593E-02 AU

    BETA       ELECTRONS
 INSULATING STATE
 TOP OF VALENCE BANDS -    BAND    873; K    2; EIG -6.8688325E-02 AU
 TOP OF VALENCE BANDS -    BAND    873; K    1; EIG -7.1735708E-02 AU
 BOTTOM OF VIRTUAL BANDS - BAND    874; K    1; EIG -5.5619593E-02 AU
 TTTTTTTTTTTTTTTTTTTTTTTTTTTTTT PDIG        TELAPSE    13771.09 TCPU    13364.63
 CHARGE NORMALIZATION FACTOR   1.00000000
 TOTAL ATOMIC CHARGES:
   1.0821319   1.0550878   1.0932209   1.0621371   1.1187724   1.0678048
   1.1077974   1.2508163   0.6305476   0.6437650   8.6524852   8.7372510
   8.7815940   8.5260764   8.7054406   8.9144983   8.8231730   8.8943871
   8.8027998   8.8215932   8.5050870   8.7050535   8.6103010   8.6410010
   8.7969249   8.7922150   8.6602849   8.6323100   8.6355229   8.6074921
   8.6090744   8.6923591   8.6885757   8.6562622   8.5691316   8.6760375
   8.6179301   8.9257925   8.7518768   8.7142833   8.7172564   8.6359992
   8.6946243   8.7544864   8.7459376   8.7418253   8.6348776   8.6263469
   8.7032157   8.7003716   8.7045308   8.7118901   8.6669795   8.5721442
   8.5369554   8.6353983   8.6599507   8.6271108   8.7508151   8.7141692
   8.6925372   8.6918876   8.6940639   8.7589358   8.7739715   8.7272510
  14.0388333  13.7387587  13.9035335  14.0472936  14.0109255  14.0059394
  13.9685737  13.9924140  13.7785301  13.7169300  13.9503455  13.9676177
  14.0407652  14.0775678  13.9932593  14.0194529  13.1970063  13.6963075
  14.0917441  14.0148336  14.0041468  14.0105738  14.0061577  14.0151812
  13.5263964  13.6234272  14.0788975  13.9844927  13.9990810  14.0011907
  13.9900097  13.9990317  13.9937258  13.9840098  13.9948949  13.9800007
  13.9973582  13.9870009  13.9968779  14.0018279  14.0010231  13.9924676
  14.0926299  14.0326978  13.7596021  13.7359011  14.0594314  14.0324916
  14.0426493  14.0464146  13.6889404  13.5975622  14.0267936  14.0294243
  14.1218392  13.6499739  13.6703790  13.2469241  14.0379824  13.9959568
  14.0624063  14.0827505  13.4322339  13.5368561  12.5921056  12.6982345
  12.6840369  13.1537825  12.8553214  13.0154837  12.6204569  12.7083522
  12.9931103  12.6207968  13.1807246  12.6960177  12.7668026  12.6274598
  12.7934303  12.6878776  12.9567067  12.6676567  13.0919341  12.9288129
  12.5509999  12.9705737  12.8761427  12.6397982  12.6391739  13.1687721
  12.6695560  12.6132066
 SUMMED SPIN DENSITY           0.00000000
 TOTAL ATOMIC SPINS  :
   0.0000000   0.0000000   0.0000000   0.0000000   0.0000000   0.0000000
   0.0000000   0.0000000   0.0000000   0.0000000   0.0000000   0.0000000
   0.0000000   0.0000000   0.0000000   0.0000000   0.0000000   0.0000000
   0.0000000   0.0000000   0.0000000   0.0000000   0.0000000   0.0000000
   0.0000000   0.0000000   0.0000000   0.0000000   0.0000000   0.0000000
   0.0000000   0.0000000   0.0000000   0.0000000   0.0000000   0.0000000
   0.0000000   0.0000000   0.0000000   0.0000000   0.0000000   0.0000000
   0.0000000   0.0000000   0.0000000   0.0000000   0.0000000   0.0000000
   0.0000000   0.0000000   0.0000000   0.0000000   0.0000000   0.0000000
   0.0000000   0.0000000   0.0000000   0.0000000   0.0000000   0.0000000
   0.0000000   0.0000000   0.0000000   0.0000000   0.0000000   0.0000000
   0.0000000   0.0000000   0.0000000   0.0000000   0.0000000   0.0000000
   0.0000000   0.0000000   0.0000000   0.0000000   0.0000000   0.0000000
   0.0000000   0.0000000   0.0000000   0.0000000   0.0000000   0.0000000
   0.0000000   0.0000000   0.0000000   0.0000000   0.0000000   0.0000000
   0.0000000   0.0000000   0.0000000   0.0000000   0.0000000   0.0000000
   0.0000000   0.0000000   0.0000000   0.0000000   0.0000000   0.0000000
   0.0000000   0.0000000   0.0000000   0.0000000   0.0000000   0.0000000
   0.0000000   0.0000000   0.0000000   0.0000000   0.0000000   0.0000000
   0.0000000   0.0000000   0.0000000   0.0000000   0.0000000   0.0000000
   0.0000000   0.0000000   0.0000000   0.0000000   0.0000000   0.0000000
   0.0000000   0.0000000   0.0000000   0.0000000   0.0000000   0.0000000
   0.0000000   0.0000000   0.0000000   0.0000000   0.0000000   0.0000000
   0.0000000   0.0000000   0.0000000   0.0000000   0.0000000   0.0000000
   0.0000000   0.0000000   0.0000000   0.0000000   0.0000000   0.0000000
   0.0000000   0.0000000   0.0000000   0.0000000   0.0000000   0.0000000
   0.0000000   0.0000000
 TTTTTTTTTTTTTTTTTTTTTTTTTTTTTT MOQGAD      TELAPSE    13771.21 TCPU    13364.74
 WARNING **** GENBUD **** COUL. BIPO BUFFER TOO SMALL - TO AVOID I/O SET BIPOSIZE =     2147300
 TTTTTTTTTTTTTTTTTTTTTTTTTTTTTT SHELLX      TELAPSE    13859.34 TCPU    13451.78
 TTTTTTTTTTTTTTTTTTTTTTTTTTTTTT MONMO3      TELAPSE    13872.26 TCPU    13464.69
 NUMERICALLY INTEGRATED DENSITY    873.0000778265    873.0000778265
 TTTTTTTTTTTTTTTTTTTTTTTTTTTTTT NUMDFT      TELAPSE    13878.75 TCPU    13471.17
 CYC  60 ETOT(AU) -3.085294343791E+04 DETOT  3.85E-08 tst  5.99E-10 PX  1.79E-04
 TTTTTTTTTTTTTTTTTTTTTTTTTTTTTT FDIK        TELAPSE    13985.81 TCPU    13574.17

    ALPHA      ELECTRONS
 INSULATING STATE
 TOP OF VALENCE BANDS -    BAND    873; K    2; EIG -6.8660352E-02 AU
 TOP OF VALENCE BANDS -    BAND    873; K    1; EIG -7.1707237E-02 AU
 BOTTOM OF VIRTUAL BANDS - BAND    874; K    1; EIG -5.5573183E-02 AU

    BETA       ELECTRONS
 INSULATING STATE
 TOP OF VALENCE BANDS -    BAND    873; K    2; EIG -6.8660352E-02 AU
 TOP OF VALENCE BANDS -    BAND    873; K    1; EIG -7.1707237E-02 AU
 BOTTOM OF VIRTUAL BANDS - BAND    874; K    1; EIG -5.5573183E-02 AU
 TTTTTTTTTTTTTTTTTTTTTTTTTTTTTT PDIG        TELAPSE    13989.00 TCPU    13577.35
 CHARGE NORMALIZATION FACTOR   1.00000000
 TOTAL ATOMIC CHARGES:
   1.0821470   1.0550578   1.0932279   1.0621331   1.1187692   1.0678124
   1.1077921   1.2508287   0.6305502   0.6437702   8.6525252   8.7372754
   8.7816233   8.5260852   8.7054584   8.9145255   8.8232185   8.8944303
   8.8028469   8.8216233   8.5050996   8.7050779   8.6103178   8.6410262
   8.7969636   8.7922327   8.6603048   8.6323287   8.6355557   8.6075314
   8.6090952   8.6923823   8.6885975   8.6562725   8.5691632   8.6760655
   8.6179708   8.9258317   8.7519241   8.7143238   8.7172917   8.6360173
   8.6946448   8.7545183   8.7459662   8.7418549   8.6348808   8.6263708
   8.7032547   8.7004023   8.7045670   8.7119064   8.6669994   8.5721719
   8.5369587   8.6354338   8.6599735   8.6271372   8.7508393   8.7141957
   8.6925562   8.6919134   8.6940994   8.7589583   8.7740090   8.7272923
  14.0388572  13.7387761  13.9035149  14.0472905  14.0109143  14.0059202
  13.9685652  13.9924160  13.7785018  13.7169239  13.9503329  13.9676127
  14.0407712  14.0775803  13.9932676  14.0194584  13.1969818  13.6963033
  14.0917374  14.0148178  14.0041533  14.0105748  14.0061584  14.0151853
  13.5263882  13.6234276  14.0788939  13.9844778  13.9990909  14.0012007
  13.9900046  13.9990321  13.9937297  13.9840141  13.9948921  13.9799998
  13.9973581  13.9870009  13.9968724  14.0018321  14.0010197  13.9924614
  14.0926369  14.0326870  13.7595811  13.7359080  14.0594456  14.0325044
  14.0426446  14.0464014  13.6889356  13.5975530  14.0267990  14.0294290
  14.1218282  13.6499716  13.6703622  13.2468922  14.0379850  13.9959671
  14.0624026  14.0827516  13.4322411  13.5368261  12.5920444  12.6981661
  12.6839934  13.1537472  12.8552762  13.0154522  12.6204236  12.7083095
  12.9930882  12.6207171  13.1807014  12.6959598  12.7667563  12.6273989
  12.7933859  12.6878458  12.9566522  12.6675942  13.0918671  12.9287638
  12.5509227  12.9705421  12.8760970  12.6397257  12.6391242  13.1687565
  12.6694922  12.6131525
 SUMMED SPIN DENSITY           0.00000000
 TOTAL ATOMIC SPINS  :
   0.0000000   0.0000000   0.0000000   0.0000000   0.0000000   0.0000000
   0.0000000   0.0000000   0.0000000   0.0000000   0.0000000   0.0000000
   0.0000000   0.0000000   0.0000000   0.0000000   0.0000000   0.0000000
   0.0000000   0.0000000   0.0000000   0.0000000   0.0000000   0.0000000
   0.0000000   0.0000000   0.0000000   0.0000000   0.0000000   0.0000000
   0.0000000   0.0000000   0.0000000   0.0000000   0.0000000   0.0000000
   0.0000000   0.0000000   0.0000000   0.0000000   0.0000000   0.0000000
   0.0000000   0.0000000   0.0000000   0.0000000   0.0000000   0.0000000
   0.0000000   0.0000000   0.0000000   0.0000000   0.0000000   0.0000000
   0.0000000   0.0000000   0.0000000   0.0000000   0.0000000   0.0000000
   0.0000000   0.0000000   0.0000000   0.0000000   0.0000000   0.0000000
   0.0000000   0.0000000   0.0000000   0.0000000   0.0000000   0.0000000
   0.0000000   0.0000000   0.0000000   0.0000000   0.0000000   0.0000000
   0.0000000   0.0000000   0.0000000   0.0000000   0.0000000   0.0000000
   0.0000000   0.0000000   0.0000000   0.0000000   0.0000000   0.0000000
   0.0000000   0.0000000   0.0000000   0.0000000   0.0000000   0.0000000
   0.0000000   0.0000000   0.0000000   0.0000000   0.0000000   0.0000000
   0.0000000   0.0000000   0.0000000   0.0000000   0.0000000   0.0000000
   0.0000000   0.0000000   0.0000000   0.0000000   0.0000000   0.0000000
   0.0000000   0.0000000   0.0000000   0.0000000   0.0000000   0.0000000
   0.0000000   0.0000000   0.0000000   0.0000000   0.0000000   0.0000000
   0.0000000   0.0000000   0.0000000   0.0000000   0.0000000   0.0000000
   0.0000000   0.0000000   0.0000000   0.0000000   0.0000000   0.0000000
   0.0000000   0.0000000   0.0000000   0.0000000   0.0000000   0.0000000
   0.0000000   0.0000000   0.0000000   0.0000000   0.0000000   0.0000000
   0.0000000   0.0000000   0.0000000   0.0000000   0.0000000   0.0000000
   0.0000000   0.0000000
 TTTTTTTTTTTTTTTTTTTTTTTTTTTTTT MOQGAD      TELAPSE    13989.11 TCPU    13577.46
 WARNING **** GENBUD **** COUL. BIPO BUFFER TOO SMALL - TO AVOID I/O SET BIPOSIZE =     2147300
 TTTTTTTTTTTTTTTTTTTTTTTTTTTTTT SHELLX      TELAPSE    14079.05 TCPU    13667.26
 +++ ENERGIES IN A.U. +++
 ::: EXT EL-POLE                                  -4.3881929633700E+04
 ::: EXT EL-SPHEROPOLE                             3.1677846985736E+02
 ::: BIELET ZONE E-E                               5.2847838149993E+04
 ::: TOTAL E-E                                     9.2826869861505E+03
 ::: TOTAL E-N + N-E                              -6.3772507901310E+04
 ::: TOTAL N-N                                    -5.1736600068167E+03
 ::: KINETIC ENERGY                                3.0754278449738E+04
 ::: PSEUDO TOTAL   ENERGY                        -2.8909202472238E+04
 ::: VIRIAL COEFFICIENT                            1.0309247122191E+00
 TTTTTTTTTTTTTTTTTTTTTTTTTTTTTT MONMO3      TELAPSE    14089.35 TCPU    13677.52
 NUMERICALLY INTEGRATED DENSITY    873.0000778261    873.0000778261
 TTTTTTTTTTTTTTTTTTTTTTTTTTTTTT NUMDFT      TELAPSE    14095.91 TCPU    13684.07
 CYC  61 ETOT(AU) -3.085294343778E+04 DETOT  1.31E-07 tst  5.30E-10 PX  1.79E-04

 == SCF ENDED - CONVERGENCE ON ENERGY      E(AU) -3.0852943437776E+04 CYCLES  61


 ENERGY EXPRESSION=HARTREE+FOCK EXCH*0.20000+(BECKE  EXCH)*0.80000+LYP    CORR

 FINITE TEMPERATURE DFT CALCULATION 
 TEMPERATURE      (T)    1.000000000000E-13 HARTREE 
 ENERGY           (E)   -3.085294343778E+04
 FREE ENERGY      (F)   -3.085294343778E+04
 ELECTRON ENTROPY (S)    0.000000000000E+00
 (E(T)+F(T))/2    (E0)  -3.085294343778E+04


 TOTAL ENERGY(DFT)(AU)( 61) -3.0852943437776E+04 DE 1.3E-07 tester 5.3E-10
 TTTTTTTTTTTTTTTTTTTTTTTTTTTTTT EDFT        TELAPSE    14096.31 TCPU    13684.44
 EIGENVECTORS IN FORTRAN UNIT 10
 TTTTTTTTTTTTTTTTTTTTTTTTTTTTTT END         TELAPSE    14139.37 TCPU    13727.41
 EEEEEEEEEE TERMINATION  DATE 30 08 2014 TIME 18:44:30.2
NODE    0 CPU TIME =     13727.406
    TOTAL CPU TIME =   2660641.844
