--------------------------------------------------------------------------
WARNING: Open MPI will create a shared memory backing file in a
directory that appears to be mounted on a network filesystem.
Creating the shared memory backup file on a network file system, such
as NFS or Lustre is not recommended -- it may cause excessive network
traffic to your file servers and/or cause shared memory traffic in
Open MPI to be much slower than expected.

You may want to check what the typical temporary directory is on your
node.  Possible sources of the location of this temporary directory
include the $TEMPDIR, $TEMP, and $TMP environment variables.

Note, too, that system administrators can set a list of filesystems
where Open MPI is disallowed from creating temporary files by settings
the MCA parameter "orte_no_session_dir".

  Local host: r2i6n10
  Fileame:    /ichec/work/scratch/tmp/268612.service1.cb3.ichec.ie/openmpi-sessions-emehes@r2i6n10_0/21268/1/shared_mem_pool.r2i6n10

You can set the MCA paramter shmem_mmap_enable_nfs_warning to 0 to
disable this message.
--------------------------------------------------------------------------
--------------------------------------------------------------------------
WARNING: It appears that your OpenFabrics subsystem is configured to only
allow registering part of your physical memory.  This can cause MPI jobs to
run with erratic performance, hang, and/or crash.

This may be caused by your OpenFabrics vendor limiting the amount of
physical memory that can be registered.  You should investigate the
relevant Linux kernel module parameters that control how much physical
memory can be registered, and increase them to allow registering all
physical memory on your machine.

See this Open MPI FAQ item for more information on these Linux kernel module
parameters:

    http://www.open-mpi.org/faq/?category=openfabrics#ib-locked-pages

  Local host:              r2i6n10
  Registerable memory:     32768 MiB
  Total memory:            65506 MiB

Your MPI job will continue, but may be behave poorly and/or hang.
--------------------------------------------------------------------------
         192 PROCESSORS WORKING

         
 *******************************************************************************
 *                                                                             *
 *                                CRYSTAL09                                    *
 *                              public : 2.0                                   *
 *                      December 10th, 2012 - parallel executable              *
 *                                                                             *
 *                                                                             *
 *                                                                             *
 *                              MAIN AUTHORS                                   *
 *                                                                             *
 *    R. DOVESI(1,10), V.R. SAUNDERS(2), C. ROETTI(1,10), R. ORLANDO (1,3),    *
 *  C.M. ZICOVICH-WILSON(1,4), F. PASCALE(5), B. CIVALLERI(1,10), K. DOLL(6),  *
 *       N.M. HARRISON(2,7), I. J. BUSH(2), Ph. D'ARCO(8), M. LLUNELL(9)       *
 *                                                                             *
 * (1) THEORETICAL CHEMISTRY GROUP - UNIVERSITA' DI TORINO - TORINO (ITALY)    *
 *      http://www.crystal.unito.it                                            *
 * (2) COMPUTATIONAL SCIENCE & ENGINEERING DEPARTMENT - STFC DARESBURY LABORATO*Y (UK)
 *     http://www.cse.stfc.ac.uk/cmg/CRYSTAL/                                  *
 * (3) UNIVERSITA' DEL PIEMONTE ORIENTALE - ALESSANDRIA (ITALY)                *
 * (4) UNIVERSIDAD AUTONOMA DEL ESTADO DE MORELOS - CUERNAVACA (MEXICO)        *
 * (5) UNIVERSITE' HENRI POINCARE' - NANCY (FRANCE)                            *
 * (6) MPI FUER FESTKOERPERFORSCHUNG - STUTTGART (GERMANY)                     *
 * (7) IMPERIAL COLLEGE - LONDON (UK)                                          *
 * (8) UNIVERSITE' PIERRE ET MARIE CURIE - PARIS (FRANCE)                      *
 * (9) UNIVERSIDAD DE BARCELONA - BARCELONA (SPAIN)                            *
 *(10) NIS - NANOSTRUCTURED INTERFACES AND SURFACES - TORINO (ITALY)           *
 *     http://www.crystal.unito.it                                             *
 *******************************************************************************
 EEEEEEEEEE STARTING  DATE 01 09 2014 TIME 19:32:56.1
 Created with astools                                                            

 CRYSTAL CALCULATION
 (INPUT ACCORDING TO THE INTERNATIONAL TABLES FOR X-RAY CRYSTALLOGRAPHY)
 CRYSTAL FAMILY                       :  TRICLINIC   
 CRYSTAL CLASS  (GROTH - 1921)        :  TRICLINIC PEDIAL                     

 SPACE GROUP (NONCENTROSYMMETRIC)     :  P 1             

 LATTICE PARAMETERS  (ANGSTROMS AND DEGREES) - CONVENTIONAL CELL
        A           B           C        ALPHA        BETA       GAMMA
    11.09810    10.18390    21.68540    90.00000    90.00000    90.00000


 NUMBER OF IRREDUCIBLE ATOMS IN THE CONVENTIONAL CELL:  166

 INPUT COORDINATES

 ATOM AT. N.              COORDINATES
   1   1     9.667260000000E-01  9.215850000000E-01  2.194300000000E-02
   2   1     4.153000000000E-01  3.942120000000E-01 -2.009700000000E-02
   3   1     2.585450000000E-01  2.269500000000E-01  9.687410000000E-01
   4   1     4.648050000000E-01  9.037250000000E-01  1.461500000000E-02
   5   1     8.934920000000E-01  3.405190000000E-01  1.006179000000E+00
   6   1     8.286050000000E-01  2.692910000000E-01  7.465400000000E-02
   7   1     1.118000000000E-02  8.876420000000E-01  4.454910000000E-01
   8   1     9.016700000000E-02 -4.025200000000E-02  6.294660000000E-01
   9   1     9.954670000000E-01  9.771610000000E-01  5.410530000000E-01
  10   1     1.613770000000E-01  6.070210000000E-01  6.557550000000E-01
  11   1     1.021745000000E+00  6.511650000000E-01  5.627150000000E-01
  12   1     6.019790000000E-01  2.853590000000E-01  6.327360000000E-01
  13   1     8.464230000000E-01  8.693350000000E-01  4.978490000000E-01
  14   1     1.477500000000E-01  1.014058000000E+00  8.455400000000E-01
  15   1     8.676320000000E-01  6.562000000000E-03  8.283680000000E-01
  16   1     9.612690000000E-01  1.659990000000E-01  7.488520000000E-01
  17   1     3.348540000000E-01  4.930100000000E-01  9.144170000000E-01
  18   1     8.543050000000E-01  5.440320000000E-01  8.959650000000E-01
  19   8     5.663430000000E-01  8.606210000000E-01  6.436530000000E-01
  20   8     3.317710000000E-01  2.739360000000E-01  6.293040000000E-01
  21   8     6.807820000000E-01  2.189630000000E-01  5.380890000000E-01
  22   8     3.344950000000E-01  5.296800000000E-01  5.957170000000E-01
  23   8     6.588750000000E-01  8.131500000000E-02  6.836370000000E-01
  24   8     7.886820000000E-01  6.084300000000E-01  5.645080000000E-01
  25   8     6.070660000000E-01  5.100160000000E-01  6.196170000000E-01
  26   8     4.331910000000E-01  9.342510000000E-01  5.376070000000E-01
  27   8     1.582260000000E-01  9.765400000000E-02  5.225300000000E-01
  28   8     9.498600000000E-02  2.231900000000E-01  6.216150000000E-01
  29   8     6.680760000000E-01  9.555340000000E-01  5.443970000000E-01
  30   8     8.438610000000E-01  6.128500000000E-02  5.957710000000E-01
  31   8     9.353830000000E-01  5.196940000000E-01  6.476430000000E-01
  32   8     4.918470000000E-01  3.606790000000E-01  5.435740000000E-01
  33   8     2.774210000000E-01  3.260540000000E-01  5.122660000000E-01
  34   8     2.962800000000E-01  8.073030000000E-01  6.427040000000E-01
  35   8     5.554960000000E-01  7.184170000000E-01  5.519760000000E-01
  36   8     1.831240000000E-01  6.923360000000E-01  5.467670000000E-01
  37   8     8.867700000000E-01  7.992800000000E-01  6.119640000000E-01
  38   8     4.141500000000E-02  3.422880000000E-01  9.447570000000E-01
  39   8     1.969790000000E-01  3.356670000000E-01  7.250440000000E-01
  40   8     1.373830000000E-01  4.440110000000E-01  8.447150000000E-01
  41   8     4.683180000000E-01  1.844250000000E-01  8.105950000000E-01
  42   8     6.095550000000E-01  1.341660000000E-01  8.997560000000E-01
  43   8     7.496460000000E-01  4.573870000000E-01  7.180950000000E-01
  44   8     9.204610000000E-01  7.936900000000E-01  9.462100000000E-01
  45   8     4.527060000000E-01  6.605210000000E-01  8.502470000000E-01
  46   8     1.520440000000E-01  6.031470000000E-01  7.528990000000E-01
  47   8     5.816010000000E-01  6.328410000000E-01  7.244330000000E-01
  48   8     4.910180000000E-01  9.214190000000E-01  8.645960000000E-01
  49   8     8.718260000000E-01  9.922220000000E-01  7.066300000000E-01
  50   8     4.085800000000E-02  7.771280000000E-01  6.973010000000E-01
  51   8     6.150840000000E-01  8.766480000000E-01  7.614440000000E-01
  52   8     8.031480000000E-01  7.431410000000E-01  7.290920000000E-01
  53   8     8.591730000000E-01  1.432040000000E-01  9.328950000000E-01
  54   8     9.813060000000E-01  4.081000000000E-01  7.498680000000E-01
  55   8     7.878800000000E-01  2.276520000000E-01  8.247020000000E-01
  56   8     3.726350000000E-01  7.660990000000E-01  9.523770000000E-01
  57   8     5.918470000000E-01  5.779200000000E-01  9.405300000000E-01
  58   8     2.583500000000E-02  1.866720000000E-01  8.510620000000E-01
  59   8     7.230930000000E-01  3.515900000000E-01  9.317500000000E-01
  60   8     3.404690000000E-01  8.281700000000E-02  9.026880000000E-01
  61   8     4.257990000000E-01  9.841530000000E-01  7.129870000000E-01
  62   8     5.278380000000E-01  3.749500000000E-01  7.233040000000E-01
  63   8     9.033600000000E-02  9.232500000000E-02  9.618940000000E-01
  64   8     2.343150000000E-01  8.495680000000E-01  7.581200000000E-01
  65   8     5.762280000000E-01  4.294320000000E-01  8.406680000000E-01
  66   8     6.889850000000E-01  6.652730000000E-01  8.326580000000E-01
  67   8     9.166480000000E-01  5.098880000000E-01  8.657480000000E-01
  68   8     3.567410000000E-01  4.311700000000E-01  8.062520000000E-01
  69   8     8.205500000000E-02  5.969300000000E-01  9.488610000000E-01
  70   8     1.561020000000E-01  8.590380000000E-01  9.423750000000E-01
  71   8     9.190600000000E-02  7.171890000000E-01  8.472590000000E-01
  72   8     9.941090000000E-01  8.718550000000E-01  7.904460000000E-01
  73   8     8.539820000000E-01  2.564490000000E-01  6.713450000000E-01
  74   8     2.259120000000E-01  6.577600000000E-02  6.847320000000E-01
  75  14     5.438700000000E-02  2.976900000000E-02  2.994300000000E-02
  76  14     3.311620000000E-01  3.033020000000E-01  1.236700000000E-02
  77  14     2.107280000000E-01  4.176800000000E-01  8.324300000000E-02
  78  14     4.496780000000E-01  1.816480000000E-01  8.464100000000E-02
  79  14     7.525400000000E-02  3.023580000000E-01  1.471580000000E-01
  80  14     3.241560000000E-01  5.886600000000E-02  1.514150000000E-01
  81  14     1.924930000000E-01  1.795440000000E-01  2.170530000000E-01
  82  14     4.484240000000E-01  4.332020000000E-01  2.149460000000E-01
  83  14     1.268440000000E-01  5.995940000000E-01  3.377700000000E-02
  84  14     2.751660000000E-01  7.691660000000E-01  1.295900000000E-02
  85  14     2.061420000000E-01  9.283510000000E-01  8.718300000000E-02
  86  14     4.442020000000E-01  6.821140000000E-01  7.758800000000E-02
  87  14     7.343200000000E-02  8.117170000000E-01  1.537830000000E-01
  88  14     3.247380000000E-01  5.558800000000E-01  1.492410000000E-01
  89  14     1.943290000000E-01  6.769360000000E-01  2.160500000000E-01
  90  14     4.493860000000E-01  9.214740000000E-01  2.084890000000E-01
  91  14     5.484350000000E-01  1.549800000000E-02  2.658700000000E-02
  92  14     8.009330000000E-01  4.361690000000E-01  9.838260000000E-01
  93  14     6.973800000000E-01  4.294310000000E-01  8.307200000000E-02
  94  14     9.412570000000E-01  1.838470000000E-01  8.540600000000E-02
  95  14     5.716870000000E-01  3.079720000000E-01  1.492550000000E-01
  96  14     8.269510000000E-01  4.835600000000E-02  1.486190000000E-01
  97  14     6.984730000000E-01  1.739930000000E-01  2.108140000000E-01
  98  14     9.514780000000E-01  4.272640000000E-01  2.119040000000E-01
  99  14     6.198610000000E-01  6.139230000000E-01  1.549000000000E-02
 100  14     8.286970000000E-01  7.672600000000E-01  1.117300000000E-02
 101  14     7.182480000000E-01  9.291620000000E-01  7.458100000000E-02
 102  14     9.555720000000E-01  6.809320000000E-01  8.761200000000E-02
 103  14     5.757940000000E-01  8.052600000000E-01  1.397290000000E-01
 104  14     8.222100000000E-01  5.535430000000E-01  1.489920000000E-01
 105  14     6.959310000000E-01  6.861300000000E-01  2.129570000000E-01
 106  14     9.477170000000E-01  9.338280000000E-01  2.196440000000E-01
 107  14     6.617700000000E-02  5.936300000000E-02  2.871000000000E-01
 108  14     3.177020000000E-01  3.114510000000E-01  2.775470000000E-01
 109  14     6.799700000000E-02  5.533430000000E-01  2.815120000000E-01
 110  14     3.199180000000E-01  8.073600000000E-01  2.769350000000E-01
 111  14     5.694920000000E-01  4.518100000000E-02  2.723130000000E-01
 112  14     8.296340000000E-01  2.963640000000E-01  2.734440000000E-01
 113  14     5.707710000000E-01  5.610060000000E-01  2.799800000000E-01
 114  14     8.193480000000E-01  8.088080000000E-01  2.815030000000E-01
 115  14     1.930420000000E-01  4.276010000000E-01  3.464970000000E-01
 116  14     4.432450000000E-01  1.733130000000E-01  3.329430000000E-01
 117  14     6.370900000000E-02  3.178420000000E-01  4.163130000000E-01
 118  14     3.211360000000E-01  6.950300000000E-02  4.054320000000E-01
 119  14     2.090290000000E-01  2.065190000000E-01  4.726080000000E-01
 120  14     4.950400000000E-01  4.306870000000E-01  4.455940000000E-01
 121  14     1.966820000000E-01  9.279560000000E-01  3.466410000000E-01
 122  14     4.360070000000E-01  6.818630000000E-01  3.448100000000E-01
 123  14     7.912000000000E-02  7.886700000000E-01  4.072620000000E-01
 124  14     3.146840000000E-01  5.521220000000E-01  4.134460000000E-01
 125  14     1.479680000000E-01  6.300410000000E-01  4.772490000000E-01
 126  14     4.723210000000E-01  9.783490000000E-01  4.641050000000E-01
 127  14     7.084700000000E-01  4.256780000000E-01  3.350780000000E-01
 128  14     9.382620000000E-01  1.877820000000E-01  3.533440000000E-01
 129  14     5.977600000000E-01  2.685990000000E-01  3.887300000000E-01
 130  14     7.614920000000E-01  1.079350000000E-01  4.039880000000E-01
 131  14     6.569820000000E-01  8.561300000000E-02  4.950240000000E-01
 132  14     9.822320000000E-01  4.772670000000E-01  4.854910000000E-01
 133  14     6.886750000000E-01  9.321670000000E-01  3.442280000000E-01
 134  14     9.390390000000E-01  6.792330000000E-01  3.459770000000E-01
 135  14     5.649970000000E-01  8.011920000000E-01  4.083240000000E-01
 136  14     8.308780000000E-01  5.350310000000E-01  4.097120000000E-01
 137  14     6.411890000000E-01  5.956610000000E-01  4.471510000000E-01
 138  14     8.379200000000E-02  7.082500000000E-02  5.869710000000E-01
 139  14     8.041010000000E-01  1.026800000000E-01  6.653040000000E-01
 140  14     2.111680000000E-01  2.275350000000E-01  6.682490000000E-01
 141  14     6.469140000000E-01  5.943740000000E-01  5.549140000000E-01
 142  14     2.478690000000E-01  6.612480000000E-01  6.126720000000E-01
 143  14     9.142530000000E-01  6.378620000000E-01  5.984600000000E-01
 144  14     6.329220000000E-01  3.457640000000E-01  5.737040000000E-01
 145  14     5.502060000000E-01  8.695560000000E-01  5.700760000000E-01
 146  14     8.666560000000E-01  9.173340000000E-01  5.612580000000E-01
 147  14     3.550810000000E-01  3.764810000000E-01  5.718430000000E-01
 148  14     3.960300000000E-02  4.708530000000E-01  8.996520000000E-01
 149  14     5.708890000000E-01  9.587560000000E-01  7.023340000000E-01
 150  14     4.816120000000E-01  8.099800000000E-02  8.697360000000E-01
 151  14     2.415700000000E-01  9.593660000000E-01  8.863250000000E-01
 152  14     3.844370000000E-01  8.019160000000E-01  8.777850000000E-01
 153  14     6.746740000000E-01  7.298120000000E-01  7.636290000000E-01
 154  14     1.211370000000E-01  4.483010000000E-01  7.653800000000E-01
 155  14     7.386760000000E-01  2.128070000000E-01  8.961100000000E-01
 156  14     1.001746000000E+00  1.897080000000E-01  9.254570000000E-01
 157  14     8.820460000000E-01  4.073900000000E-01  6.955860000000E-01
 158  14     9.094730000000E-01  1.369510000000E-01  8.087110000000E-01
 159  14     4.817040000000E-01  3.451470000000E-01  7.961980000000E-01
 160  14     3.109920000000E-01  5.584240000000E-01  8.524600000000E-01
 161  14     2.960340000000E-01  9.235040000000E-01  6.984370000000E-01
 162  14     1.093770000000E-01  7.600090000000E-01  7.709700000000E-01
 163  14     9.177730000000E-01  8.461960000000E-01  7.254960000000E-01
 164  14     6.147650000000E-01  4.903340000000E-01  6.970040000000E-01
 165  14     5.285000000000E-02  7.549080000000E-01  9.170260000000E-01
 166  14     5.843190000000E-01  5.778220000000E-01  8.683750000000E-01

 *******************************************************************************

 << INFORMATION >>: FROM NOW ON, ALL COORDINATES REFER TO THE PRIMITIVE CELL

 *******************************************************************************

 LATTICE PARAMETERS  (ANGSTROMS AND DEGREES) - PRIMITIVE CELL
       A          B          C         ALPHA     BETA     GAMMA        VOLUME
   11.09810   10.18390   21.68540    90.00000  90.00000  90.00000   2450.925990

 COORDINATES OF THE EQUIVALENT ATOMS (FRACTIONAL UNITS)

 N. ATOM EQUIV AT. N.          X                  Y                  Z

   1   1   1    1 H    -3.32740000000E-02 -7.84150000000E-02  2.19430000000E-02

   2   2   1    1 H     4.15300000000E-01  3.94212000000E-01 -2.00970000000E-02

   3   3   1    1 H     2.58545000000E-01  2.26950000000E-01 -3.12590000000E-02

   4   4   1    1 H     4.64805000000E-01 -9.62750000000E-02  1.46150000000E-02

   5   5   1    1 H    -1.06508000000E-01  3.40519000000E-01  6.17900000000E-03

   6   6   1    1 H    -1.71395000000E-01  2.69291000000E-01  7.46540000000E-02

   7   7   1    1 H     1.11800000000E-02 -1.12358000000E-01  4.45491000000E-01

   8   8   1    1 H     9.01670000000E-02 -4.02520000000E-02 -3.70534000000E-01

   9   9   1    1 H    -4.53300000000E-03 -2.28390000000E-02 -4.58947000000E-01

  10  10   1    1 H     1.61377000000E-01 -3.92979000000E-01 -3.44245000000E-01

  11  11   1    1 H     2.17450000000E-02 -3.48835000000E-01 -4.37285000000E-01

  12  12   1    1 H    -3.98021000000E-01  2.85359000000E-01 -3.67264000000E-01

  13  13   1    1 H    -1.53577000000E-01 -1.30665000000E-01  4.97849000000E-01

  14  14   1    1 H     1.47750000000E-01  1.40580000000E-02 -1.54460000000E-01

  15  15   1    1 H    -1.32368000000E-01  6.56200000000E-03 -1.71632000000E-01

  16  16   1    1 H    -3.87310000000E-02  1.65999000000E-01 -2.51148000000E-01

  17  17   1    1 H     3.34854000000E-01  4.93010000000E-01 -8.55830000000E-02

  18  18   1    1 H    -1.45695000000E-01 -4.55968000000E-01 -1.04035000000E-01

  19  19   1    8 O    -4.33657000000E-01 -1.39379000000E-01 -3.56347000000E-01

  20  20   1    8 O     3.31771000000E-01  2.73936000000E-01 -3.70696000000E-01

  21  21   1    8 O    -3.19218000000E-01  2.18963000000E-01 -4.61911000000E-01

  22  22   1    8 O     3.34495000000E-01 -4.70320000000E-01 -4.04283000000E-01

  23  23   1    8 O    -3.41125000000E-01  8.13150000000E-02 -3.16363000000E-01

  24  24   1    8 O    -2.11318000000E-01 -3.91570000000E-01 -4.35492000000E-01

  25  25   1    8 O    -3.92934000000E-01 -4.89984000000E-01 -3.80383000000E-01

  26  26   1    8 O     4.33191000000E-01 -6.57490000000E-02 -4.62393000000E-01

  27  27   1    8 O     1.58226000000E-01  9.76540000000E-02 -4.77470000000E-01

  28  28   1    8 O     9.49860000000E-02  2.23190000000E-01 -3.78385000000E-01

  29  29   1    8 O    -3.31924000000E-01 -4.44660000000E-02 -4.55603000000E-01

  30  30   1    8 O    -1.56139000000E-01  6.12850000000E-02 -4.04229000000E-01

  31  31   1    8 O    -6.46170000000E-02 -4.80306000000E-01 -3.52357000000E-01

  32  32   1    8 O     4.91847000000E-01  3.60679000000E-01 -4.56426000000E-01

  33  33   1    8 O     2.77421000000E-01  3.26054000000E-01 -4.87734000000E-01

  34  34   1    8 O     2.96280000000E-01 -1.92697000000E-01 -3.57296000000E-01

  35  35   1    8 O    -4.44504000000E-01 -2.81583000000E-01 -4.48024000000E-01

  36  36   1    8 O     1.83124000000E-01 -3.07664000000E-01 -4.53233000000E-01

  37  37   1    8 O    -1.13230000000E-01 -2.00720000000E-01 -3.88036000000E-01

  38  38   1    8 O     4.14150000000E-02  3.42288000000E-01 -5.52430000000E-02

  39  39   1    8 O     1.96979000000E-01  3.35667000000E-01 -2.74956000000E-01

  40  40   1    8 O     1.37383000000E-01  4.44011000000E-01 -1.55285000000E-01

  41  41   1    8 O     4.68318000000E-01  1.84425000000E-01 -1.89405000000E-01

  42  42   1    8 O    -3.90445000000E-01  1.34166000000E-01 -1.00244000000E-01

  43  43   1    8 O    -2.50354000000E-01  4.57387000000E-01 -2.81905000000E-01

  44  44   1    8 O    -7.95390000000E-02 -2.06310000000E-01 -5.37900000000E-02

  45  45   1    8 O     4.52706000000E-01 -3.39479000000E-01 -1.49753000000E-01

  46  46   1    8 O     1.52044000000E-01 -3.96853000000E-01 -2.47101000000E-01

  47  47   1    8 O    -4.18399000000E-01 -3.67159000000E-01 -2.75567000000E-01

  48  48   1    8 O     4.91018000000E-01 -7.85810000000E-02 -1.35404000000E-01

  49  49   1    8 O    -1.28174000000E-01 -7.77800000000E-03 -2.93370000000E-01

  50  50   1    8 O     4.08580000000E-02 -2.22872000000E-01 -3.02699000000E-01

  51  51   1    8 O    -3.84916000000E-01 -1.23352000000E-01 -2.38556000000E-01

  52  52   1    8 O    -1.96852000000E-01 -2.56859000000E-01 -2.70908000000E-01

  53  53   1    8 O    -1.40827000000E-01  1.43204000000E-01 -6.71050000000E-02

  54  54   1    8 O    -1.86940000000E-02  4.08100000000E-01 -2.50132000000E-01

  55  55   1    8 O    -2.12120000000E-01  2.27652000000E-01 -1.75298000000E-01

  56  56   1    8 O     3.72635000000E-01 -2.33901000000E-01 -4.76230000000E-02

  57  57   1    8 O    -4.08153000000E-01 -4.22080000000E-01 -5.94700000000E-02

  58  58   1    8 O     2.58350000000E-02  1.86672000000E-01 -1.48938000000E-01

  59  59   1    8 O    -2.76907000000E-01  3.51590000000E-01 -6.82500000000E-02

  60  60   1    8 O     3.40469000000E-01  8.28170000000E-02 -9.73120000000E-02

  61  61   1    8 O     4.25799000000E-01 -1.58470000000E-02 -2.87013000000E-01

  62  62   1    8 O    -4.72162000000E-01  3.74950000000E-01 -2.76696000000E-01

  63  63   1    8 O     9.03360000000E-02  9.23250000000E-02 -3.81060000000E-02

  64  64   1    8 O     2.34315000000E-01 -1.50432000000E-01 -2.41880000000E-01

  65  65   1    8 O    -4.23772000000E-01  4.29432000000E-01 -1.59332000000E-01

  66  66   1    8 O    -3.11015000000E-01 -3.34727000000E-01 -1.67342000000E-01

  67  67   1    8 O    -8.33520000000E-02 -4.90112000000E-01 -1.34252000000E-01

  68  68   1    8 O     3.56741000000E-01  4.31170000000E-01 -1.93748000000E-01

  69  69   1    8 O     8.20550000000E-02 -4.03070000000E-01 -5.11390000000E-02

  70  70   1    8 O     1.56102000000E-01 -1.40962000000E-01 -5.76250000000E-02

  71  71   1    8 O     9.19060000000E-02 -2.82811000000E-01 -1.52741000000E-01

  72  72   1    8 O    -5.89100000000E-03 -1.28145000000E-01 -2.09554000000E-01

  73  73   1    8 O    -1.46018000000E-01  2.56449000000E-01 -3.28655000000E-01

  74  74   1    8 O     2.25912000000E-01  6.57760000000E-02 -3.15268000000E-01

  75  75   1   14 SI    5.43870000000E-02  2.97690000000E-02  2.99430000000E-02

  76  76   1   14 SI    3.31162000000E-01  3.03302000000E-01  1.23670000000E-02

  77  77   1   14 SI    2.10728000000E-01  4.17680000000E-01  8.32430000000E-02

  78  78   1   14 SI    4.49678000000E-01  1.81648000000E-01  8.46410000000E-02

  79  79   1   14 SI    7.52540000000E-02  3.02358000000E-01  1.47158000000E-01

  80  80   1   14 SI    3.24156000000E-01  5.88660000000E-02  1.51415000000E-01

  81  81   1   14 SI    1.92493000000E-01  1.79544000000E-01  2.17053000000E-01

  82  82   1   14 SI    4.48424000000E-01  4.33202000000E-01  2.14946000000E-01

  83  83   1   14 SI    1.26844000000E-01 -4.00406000000E-01  3.37770000000E-02

  84  84   1   14 SI    2.75166000000E-01 -2.30834000000E-01  1.29590000000E-02

  85  85   1   14 SI    2.06142000000E-01 -7.16490000000E-02  8.71830000000E-02

  86  86   1   14 SI    4.44202000000E-01 -3.17886000000E-01  7.75880000000E-02

  87  87   1   14 SI    7.34320000000E-02 -1.88283000000E-01  1.53783000000E-01

  88  88   1   14 SI    3.24738000000E-01 -4.44120000000E-01  1.49241000000E-01

  89  89   1   14 SI    1.94329000000E-01 -3.23064000000E-01  2.16050000000E-01

  90  90   1   14 SI    4.49386000000E-01 -7.85260000000E-02  2.08489000000E-01

  91  91   1   14 SI   -4.51565000000E-01  1.54980000000E-02  2.65870000000E-02

  92  92   1   14 SI   -1.99067000000E-01  4.36169000000E-01 -1.61740000000E-02

  93  93   1   14 SI   -3.02620000000E-01  4.29431000000E-01  8.30720000000E-02

  94  94   1   14 SI   -5.87430000000E-02  1.83847000000E-01  8.54060000000E-02

  95  95   1   14 SI   -4.28313000000E-01  3.07972000000E-01  1.49255000000E-01

  96  96   1   14 SI   -1.73049000000E-01  4.83560000000E-02  1.48619000000E-01

  97  97   1   14 SI   -3.01527000000E-01  1.73993000000E-01  2.10814000000E-01

  98  98   1   14 SI   -4.85220000000E-02  4.27264000000E-01  2.11904000000E-01

  99  99   1   14 SI   -3.80139000000E-01 -3.86077000000E-01  1.54900000000E-02

 100 100   1   14 SI   -1.71303000000E-01 -2.32740000000E-01  1.11730000000E-02

 101 101   1   14 SI   -2.81752000000E-01 -7.08380000000E-02  7.45810000000E-02

 102 102   1   14 SI   -4.44280000000E-02 -3.19068000000E-01  8.76120000000E-02

 103 103   1   14 SI   -4.24206000000E-01 -1.94740000000E-01  1.39729000000E-01

 104 104   1   14 SI   -1.77790000000E-01 -4.46457000000E-01  1.48992000000E-01

 105 105   1   14 SI   -3.04069000000E-01 -3.13870000000E-01  2.12957000000E-01

 106 106   1   14 SI   -5.22830000000E-02 -6.61720000000E-02  2.19644000000E-01

 107 107   1   14 SI    6.61770000000E-02  5.93630000000E-02  2.87100000000E-01

 108 108   1   14 SI    3.17702000000E-01  3.11451000000E-01  2.77547000000E-01

 109 109   1   14 SI    6.79970000000E-02 -4.46657000000E-01  2.81512000000E-01

 110 110   1   14 SI    3.19918000000E-01 -1.92640000000E-01  2.76935000000E-01

 111 111   1   14 SI   -4.30508000000E-01  4.51810000000E-02  2.72313000000E-01

 112 112   1   14 SI   -1.70366000000E-01  2.96364000000E-01  2.73444000000E-01

 113 113   1   14 SI   -4.29229000000E-01 -4.38994000000E-01  2.79980000000E-01

 114 114   1   14 SI   -1.80652000000E-01 -1.91192000000E-01  2.81503000000E-01

 115 115   1   14 SI    1.93042000000E-01  4.27601000000E-01  3.46497000000E-01

 116 116   1   14 SI    4.43245000000E-01  1.73313000000E-01  3.32943000000E-01

 117 117   1   14 SI    6.37090000000E-02  3.17842000000E-01  4.16313000000E-01

 118 118   1   14 SI    3.21136000000E-01  6.95030000000E-02  4.05432000000E-01

 119 119   1   14 SI    2.09029000000E-01  2.06519000000E-01  4.72608000000E-01

 120 120   1   14 SI    4.95040000000E-01  4.30687000000E-01  4.45594000000E-01

 121 121   1   14 SI    1.96682000000E-01 -7.20440000000E-02  3.46641000000E-01

 122 122   1   14 SI    4.36007000000E-01 -3.18137000000E-01  3.44810000000E-01

 123 123   1   14 SI    7.91200000000E-02 -2.11330000000E-01  4.07262000000E-01

 124 124   1   14 SI    3.14684000000E-01 -4.47878000000E-01  4.13446000000E-01

 125 125   1   14 SI    1.47968000000E-01 -3.69959000000E-01  4.77249000000E-01

 126 126   1   14 SI    4.72321000000E-01 -2.16510000000E-02  4.64105000000E-01

 127 127   1   14 SI   -2.91530000000E-01  4.25678000000E-01  3.35078000000E-01

 128 128   1   14 SI   -6.17380000000E-02  1.87782000000E-01  3.53344000000E-01

 129 129   1   14 SI   -4.02240000000E-01  2.68599000000E-01  3.88730000000E-01

 130 130   1   14 SI   -2.38508000000E-01  1.07935000000E-01  4.03988000000E-01

 131 131   1   14 SI   -3.43018000000E-01  8.56130000000E-02  4.95024000000E-01

 132 132   1   14 SI   -1.77680000000E-02  4.77267000000E-01  4.85491000000E-01

 133 133   1   14 SI   -3.11325000000E-01 -6.78330000000E-02  3.44228000000E-01

 134 134   1   14 SI   -6.09610000000E-02 -3.20767000000E-01  3.45977000000E-01

 135 135   1   14 SI   -4.35003000000E-01 -1.98808000000E-01  4.08324000000E-01

 136 136   1   14 SI   -1.69122000000E-01 -4.64969000000E-01  4.09712000000E-01

 137 137   1   14 SI   -3.58811000000E-01 -4.04339000000E-01  4.47151000000E-01

 138 138   1   14 SI    8.37920000000E-02  7.08250000000E-02 -4.13029000000E-01

 139 139   1   14 SI   -1.95899000000E-01  1.02680000000E-01 -3.34696000000E-01

 140 140   1   14 SI    2.11168000000E-01  2.27535000000E-01 -3.31751000000E-01

 141 141   1   14 SI   -3.53086000000E-01 -4.05626000000E-01 -4.45086000000E-01

 142 142   1   14 SI    2.47869000000E-01 -3.38752000000E-01 -3.87328000000E-01

 143 143   1   14 SI   -8.57470000000E-02 -3.62138000000E-01 -4.01540000000E-01

 144 144   1   14 SI   -3.67078000000E-01  3.45764000000E-01 -4.26296000000E-01

 145 145   1   14 SI   -4.49794000000E-01 -1.30444000000E-01 -4.29924000000E-01

 146 146   1   14 SI   -1.33344000000E-01 -8.26660000000E-02 -4.38742000000E-01

 147 147   1   14 SI    3.55081000000E-01  3.76481000000E-01 -4.28157000000E-01

 148 148   1   14 SI    3.96030000000E-02  4.70853000000E-01 -1.00348000000E-01

 149 149   1   14 SI   -4.29111000000E-01 -4.12440000000E-02 -2.97666000000E-01

 150 150   1   14 SI    4.81612000000E-01  8.09980000000E-02 -1.30264000000E-01

 151 151   1   14 SI    2.41570000000E-01 -4.06340000000E-02 -1.13675000000E-01

 152 152   1   14 SI    3.84437000000E-01 -1.98084000000E-01 -1.22215000000E-01

 153 153   1   14 SI   -3.25326000000E-01 -2.70188000000E-01 -2.36371000000E-01

 154 154   1   14 SI    1.21137000000E-01  4.48301000000E-01 -2.34620000000E-01

 155 155   1   14 SI   -2.61324000000E-01  2.12807000000E-01 -1.03890000000E-01

 156 156   1   14 SI    1.74600000000E-03  1.89708000000E-01 -7.45430000000E-02

 157 157   1   14 SI   -1.17954000000E-01  4.07390000000E-01 -3.04414000000E-01

 158 158   1   14 SI   -9.05270000000E-02  1.36951000000E-01 -1.91289000000E-01

 159 159   1   14 SI    4.81704000000E-01  3.45147000000E-01 -2.03802000000E-01

 160 160   1   14 SI    3.10992000000E-01 -4.41576000000E-01 -1.47540000000E-01

 161 161   1   14 SI    2.96034000000E-01 -7.64960000000E-02 -3.01563000000E-01

 162 162   1   14 SI    1.09377000000E-01 -2.39991000000E-01 -2.29030000000E-01

 163 163   1   14 SI   -8.22270000000E-02 -1.53804000000E-01 -2.74504000000E-01

 164 164   1   14 SI   -3.85235000000E-01  4.90334000000E-01 -3.02996000000E-01

 165 165   1   14 SI    5.28500000000E-02 -2.45092000000E-01 -8.29740000000E-02

 166 166   1   14 SI   -4.15681000000E-01 -4.22178000000E-01 -1.31625000000E-01

 NUMBER OF SYMMETRY OPERATORS         :    1
 *******************************************************************************
 * GEOMETRY EDITING - INPUT COORDINATES ARE GIVEN IN ANGSTROM         
 *******************************************************************************

 GCALCO - MAX INDICES DIRECT LATTICE VECTOR    18    19     9
 NO.OF VECTORS CREATED 6999 STARS 1063 RMAX   301.56757 BOHR

 GEOMETRY FOR WAVE FUNCTION - DIMENSIONALITY OF THE SYSTEM    3
 (NON PERIODIC DIRECTION: LATTICE PARAMETER FORMALLY SET TO 500)
 *******************************************************************************
 LATTICE PARAMETERS (ANGSTROMS AND DEGREES) - BOHR = 0.5291772083 ANGSTROM
 PRIMITIVE CELL - CENTRING CODE 1/0 VOLUME=  2450.925990 - DENSITY  2.363 g/cm^3
         A              B              C           ALPHA      BETA       GAMMA 
    11.09810000    10.18390000    21.68540000    90.000000  90.000000  90.000000
 *******************************************************************************
 ATOMS IN THE ASYMMETRIC UNIT  166 - ATOMS IN THE UNIT CELL:  166
     ATOM              X/A                 Y/B                 Z/C    
 *******************************************************************************
   1 T   1 H    -3.327400000000E-02 -7.841500000000E-02  2.194300000000E-02
   2 T   1 H     4.153000000000E-01  3.942120000000E-01 -2.009700000000E-02
   3 T   1 H     2.585450000000E-01  2.269500000000E-01 -3.125900000000E-02
   4 T   1 H     4.648050000000E-01 -9.627500000000E-02  1.461500000000E-02
   5 T   1 H    -1.065080000000E-01  3.405190000000E-01  6.179000000000E-03
   6 T   1 H    -1.713950000000E-01  2.692910000000E-01  7.465400000000E-02
   7 T   1 H     1.118000000000E-02 -1.123580000000E-01  4.454910000000E-01
   8 T   1 H     9.016700000000E-02 -4.025200000000E-02 -3.705340000000E-01
   9 T   1 H    -4.533000000000E-03 -2.283900000000E-02 -4.589470000000E-01
  10 T   1 H     1.613770000000E-01 -3.929790000000E-01 -3.442450000000E-01
  11 T   1 H     2.174500000000E-02 -3.488350000000E-01 -4.372850000000E-01
  12 T   1 H    -3.980210000000E-01  2.853590000000E-01 -3.672640000000E-01
  13 T   1 H    -1.535770000000E-01 -1.306650000000E-01  4.978490000000E-01
  14 T   1 H     1.477500000000E-01  1.405800000000E-02 -1.544600000000E-01
  15 T   1 H    -1.323680000000E-01  6.562000000000E-03 -1.716320000000E-01
  16 T   1 H    -3.873100000000E-02  1.659990000000E-01 -2.511480000000E-01
  17 T   1 H     3.348540000000E-01  4.930100000000E-01 -8.558300000000E-02
  18 T   1 H    -1.456950000000E-01 -4.559680000000E-01 -1.040350000000E-01
  19 T   8 O    -4.336570000000E-01 -1.393790000000E-01 -3.563470000000E-01
  20 T   8 O     3.317710000000E-01  2.739360000000E-01 -3.706960000000E-01
  21 T   8 O    -3.192180000000E-01  2.189630000000E-01 -4.619110000000E-01
  22 T   8 O     3.344950000000E-01 -4.703200000000E-01 -4.042830000000E-01
  23 T   8 O    -3.411250000000E-01  8.131500000000E-02 -3.163630000000E-01
  24 T   8 O    -2.113180000000E-01 -3.915700000000E-01 -4.354920000000E-01
  25 T   8 O    -3.929340000000E-01 -4.899840000000E-01 -3.803830000000E-01
  26 T   8 O     4.331910000000E-01 -6.574900000000E-02 -4.623930000000E-01
  27 T   8 O     1.582260000000E-01  9.765400000000E-02 -4.774700000000E-01
  28 T   8 O     9.498600000000E-02  2.231900000000E-01 -3.783850000000E-01
  29 T   8 O    -3.319240000000E-01 -4.446600000000E-02 -4.556030000000E-01
  30 T   8 O    -1.561390000000E-01  6.128500000000E-02 -4.042290000000E-01
  31 T   8 O    -6.461700000000E-02 -4.803060000000E-01 -3.523570000000E-01
  32 T   8 O     4.918470000000E-01  3.606790000000E-01 -4.564260000000E-01
  33 T   8 O     2.774210000000E-01  3.260540000000E-01 -4.877340000000E-01
  34 T   8 O     2.962800000000E-01 -1.926970000000E-01 -3.572960000000E-01
  35 T   8 O    -4.445040000000E-01 -2.815830000000E-01 -4.480240000000E-01
  36 T   8 O     1.831240000000E-01 -3.076640000000E-01 -4.532330000000E-01
  37 T   8 O    -1.132300000000E-01 -2.007200000000E-01 -3.880360000000E-01
  38 T   8 O     4.141500000000E-02  3.422880000000E-01 -5.524300000000E-02
  39 T   8 O     1.969790000000E-01  3.356670000000E-01 -2.749560000000E-01
  40 T   8 O     1.373830000000E-01  4.440110000000E-01 -1.552850000000E-01
  41 T   8 O     4.683180000000E-01  1.844250000000E-01 -1.894050000000E-01
  42 T   8 O    -3.904450000000E-01  1.341660000000E-01 -1.002440000000E-01
  43 T   8 O    -2.503540000000E-01  4.573870000000E-01 -2.819050000000E-01
  44 T   8 O    -7.953900000000E-02 -2.063100000000E-01 -5.379000000000E-02
  45 T   8 O     4.527060000000E-01 -3.394790000000E-01 -1.497530000000E-01
  46 T   8 O     1.520440000000E-01 -3.968530000000E-01 -2.471010000000E-01
  47 T   8 O    -4.183990000000E-01 -3.671590000000E-01 -2.755670000000E-01
  48 T   8 O     4.910180000000E-01 -7.858100000000E-02 -1.354040000000E-01
  49 T   8 O    -1.281740000000E-01 -7.778000000000E-03 -2.933700000000E-01
  50 T   8 O     4.085800000000E-02 -2.228720000000E-01 -3.026990000000E-01
  51 T   8 O    -3.849160000000E-01 -1.233520000000E-01 -2.385560000000E-01
  52 T   8 O    -1.968520000000E-01 -2.568590000000E-01 -2.709080000000E-01
  53 T   8 O    -1.408270000000E-01  1.432040000000E-01 -6.710500000000E-02
  54 T   8 O    -1.869400000000E-02  4.081000000000E-01 -2.501320000000E-01
  55 T   8 O    -2.121200000000E-01  2.276520000000E-01 -1.752980000000E-01
  56 T   8 O     3.726350000000E-01 -2.339010000000E-01 -4.762300000000E-02
  57 T   8 O    -4.081530000000E-01 -4.220800000000E-01 -5.947000000000E-02
  58 T   8 O     2.583500000000E-02  1.866720000000E-01 -1.489380000000E-01
  59 T   8 O    -2.769070000000E-01  3.515900000000E-01 -6.825000000000E-02
  60 T   8 O     3.404690000000E-01  8.281700000000E-02 -9.731200000000E-02
  61 T   8 O     4.257990000000E-01 -1.584700000000E-02 -2.870130000000E-01
  62 T   8 O    -4.721620000000E-01  3.749500000000E-01 -2.766960000000E-01
  63 T   8 O     9.033600000000E-02  9.232500000000E-02 -3.810600000000E-02
  64 T   8 O     2.343150000000E-01 -1.504320000000E-01 -2.418800000000E-01
  65 T   8 O    -4.237720000000E-01  4.294320000000E-01 -1.593320000000E-01
  66 T   8 O    -3.110150000000E-01 -3.347270000000E-01 -1.673420000000E-01
  67 T   8 O    -8.335200000000E-02 -4.901120000000E-01 -1.342520000000E-01
  68 T   8 O     3.567410000000E-01  4.311700000000E-01 -1.937480000000E-01
  69 T   8 O     8.205500000000E-02 -4.030700000000E-01 -5.113900000000E-02
  70 T   8 O     1.561020000000E-01 -1.409620000000E-01 -5.762500000000E-02
  71 T   8 O     9.190600000000E-02 -2.828110000000E-01 -1.527410000000E-01
  72 T   8 O    -5.891000000000E-03 -1.281450000000E-01 -2.095540000000E-01
  73 T   8 O    -1.460180000000E-01  2.564490000000E-01 -3.286550000000E-01
  74 T   8 O     2.259120000000E-01  6.577600000000E-02 -3.152680000000E-01
  75 T  14 SI    5.438700000000E-02  2.976900000000E-02  2.994300000000E-02
  76 T  14 SI    3.311620000000E-01  3.033020000000E-01  1.236700000000E-02
  77 T  14 SI    2.107280000000E-01  4.176800000000E-01  8.324300000000E-02
  78 T  14 SI    4.496780000000E-01  1.816480000000E-01  8.464100000000E-02
  79 T  14 SI    7.525400000000E-02  3.023580000000E-01  1.471580000000E-01
  80 T  14 SI    3.241560000000E-01  5.886600000000E-02  1.514150000000E-01
  81 T  14 SI    1.924930000000E-01  1.795440000000E-01  2.170530000000E-01
  82 T  14 SI    4.484240000000E-01  4.332020000000E-01  2.149460000000E-01
  83 T  14 SI    1.268440000000E-01 -4.004060000000E-01  3.377700000000E-02
  84 T  14 SI    2.751660000000E-01 -2.308340000000E-01  1.295900000000E-02
  85 T  14 SI    2.061420000000E-01 -7.164900000000E-02  8.718300000000E-02
  86 T  14 SI    4.442020000000E-01 -3.178860000000E-01  7.758800000000E-02
  87 T  14 SI    7.343200000000E-02 -1.882830000000E-01  1.537830000000E-01
  88 T  14 SI    3.247380000000E-01 -4.441200000000E-01  1.492410000000E-01
  89 T  14 SI    1.943290000000E-01 -3.230640000000E-01  2.160500000000E-01
  90 T  14 SI    4.493860000000E-01 -7.852600000000E-02  2.084890000000E-01
  91 T  14 SI   -4.515650000000E-01  1.549800000000E-02  2.658700000000E-02
  92 T  14 SI   -1.990670000000E-01  4.361690000000E-01 -1.617400000000E-02
  93 T  14 SI   -3.026200000000E-01  4.294310000000E-01  8.307200000000E-02
  94 T  14 SI   -5.874300000000E-02  1.838470000000E-01  8.540600000000E-02
  95 T  14 SI   -4.283130000000E-01  3.079720000000E-01  1.492550000000E-01
  96 T  14 SI   -1.730490000000E-01  4.835600000000E-02  1.486190000000E-01
  97 T  14 SI   -3.015270000000E-01  1.739930000000E-01  2.108140000000E-01
  98 T  14 SI   -4.852200000000E-02  4.272640000000E-01  2.119040000000E-01
  99 T  14 SI   -3.801390000000E-01 -3.860770000000E-01  1.549000000000E-02
 100 T  14 SI   -1.713030000000E-01 -2.327400000000E-01  1.117300000000E-02
 101 T  14 SI   -2.817520000000E-01 -7.083800000000E-02  7.458100000000E-02
 102 T  14 SI   -4.442800000000E-02 -3.190680000000E-01  8.761200000000E-02
 103 T  14 SI   -4.242060000000E-01 -1.947400000000E-01  1.397290000000E-01
 104 T  14 SI   -1.777900000000E-01 -4.464570000000E-01  1.489920000000E-01
 105 T  14 SI   -3.040690000000E-01 -3.138700000000E-01  2.129570000000E-01
 106 T  14 SI   -5.228300000000E-02 -6.617200000000E-02  2.196440000000E-01
 107 T  14 SI    6.617700000000E-02  5.936300000000E-02  2.871000000000E-01
 108 T  14 SI    3.177020000000E-01  3.114510000000E-01  2.775470000000E-01
 109 T  14 SI    6.799700000000E-02 -4.466570000000E-01  2.815120000000E-01
 110 T  14 SI    3.199180000000E-01 -1.926400000000E-01  2.769350000000E-01
 111 T  14 SI   -4.305080000000E-01  4.518100000000E-02  2.723130000000E-01
 112 T  14 SI   -1.703660000000E-01  2.963640000000E-01  2.734440000000E-01
 113 T  14 SI   -4.292290000000E-01 -4.389940000000E-01  2.799800000000E-01
 114 T  14 SI   -1.806520000000E-01 -1.911920000000E-01  2.815030000000E-01
 115 T  14 SI    1.930420000000E-01  4.276010000000E-01  3.464970000000E-01
 116 T  14 SI    4.432450000000E-01  1.733130000000E-01  3.329430000000E-01
 117 T  14 SI    6.370900000000E-02  3.178420000000E-01  4.163130000000E-01
 118 T  14 SI    3.211360000000E-01  6.950300000000E-02  4.054320000000E-01
 119 T  14 SI    2.090290000000E-01  2.065190000000E-01  4.726080000000E-01
 120 T  14 SI    4.950400000000E-01  4.306870000000E-01  4.455940000000E-01
 121 T  14 SI    1.966820000000E-01 -7.204400000000E-02  3.466410000000E-01
 122 T  14 SI    4.360070000000E-01 -3.181370000000E-01  3.448100000000E-01
 123 T  14 SI    7.912000000000E-02 -2.113300000000E-01  4.072620000000E-01
 124 T  14 SI    3.146840000000E-01 -4.478780000000E-01  4.134460000000E-01
 125 T  14 SI    1.479680000000E-01 -3.699590000000E-01  4.772490000000E-01
 126 T  14 SI    4.723210000000E-01 -2.165100000000E-02  4.641050000000E-01
 127 T  14 SI   -2.915300000000E-01  4.256780000000E-01  3.350780000000E-01
 128 T  14 SI   -6.173800000000E-02  1.877820000000E-01  3.533440000000E-01
 129 T  14 SI   -4.022400000000E-01  2.685990000000E-01  3.887300000000E-01
 130 T  14 SI   -2.385080000000E-01  1.079350000000E-01  4.039880000000E-01
 131 T  14 SI   -3.430180000000E-01  8.561300000000E-02  4.950240000000E-01
 132 T  14 SI   -1.776800000000E-02  4.772670000000E-01  4.854910000000E-01
 133 T  14 SI   -3.113250000000E-01 -6.783300000000E-02  3.442280000000E-01
 134 T  14 SI   -6.096100000000E-02 -3.207670000000E-01  3.459770000000E-01
 135 T  14 SI   -4.350030000000E-01 -1.988080000000E-01  4.083240000000E-01
 136 T  14 SI   -1.691220000000E-01 -4.649690000000E-01  4.097120000000E-01
 137 T  14 SI   -3.588110000000E-01 -4.043390000000E-01  4.471510000000E-01
 138 T  14 SI    8.379200000000E-02  7.082500000000E-02 -4.130290000000E-01
 139 T  14 SI   -1.958990000000E-01  1.026800000000E-01 -3.346960000000E-01
 140 T  14 SI    2.111680000000E-01  2.275350000000E-01 -3.317510000000E-01
 141 T  14 SI   -3.530860000000E-01 -4.056260000000E-01 -4.450860000000E-01
 142 T  14 SI    2.478690000000E-01 -3.387520000000E-01 -3.873280000000E-01
 143 T  14 SI   -8.574700000000E-02 -3.621380000000E-01 -4.015400000000E-01
 144 T  14 SI   -3.670780000000E-01  3.457640000000E-01 -4.262960000000E-01
 145 T  14 SI   -4.497940000000E-01 -1.304440000000E-01 -4.299240000000E-01
 146 T  14 SI   -1.333440000000E-01 -8.266600000000E-02 -4.387420000000E-01
 147 T  14 SI    3.550810000000E-01  3.764810000000E-01 -4.281570000000E-01
 148 T  14 SI    3.960300000000E-02  4.708530000000E-01 -1.003480000000E-01
 149 T  14 SI   -4.291110000000E-01 -4.124400000000E-02 -2.976660000000E-01
 150 T  14 SI    4.816120000000E-01  8.099800000000E-02 -1.302640000000E-01
 151 T  14 SI    2.415700000000E-01 -4.063400000000E-02 -1.136750000000E-01
 152 T  14 SI    3.844370000000E-01 -1.980840000000E-01 -1.222150000000E-01
 153 T  14 SI   -3.253260000000E-01 -2.701880000000E-01 -2.363710000000E-01
 154 T  14 SI    1.211370000000E-01  4.483010000000E-01 -2.346200000000E-01
 155 T  14 SI   -2.613240000000E-01  2.128070000000E-01 -1.038900000000E-01
 156 T  14 SI    1.746000000000E-03  1.897080000000E-01 -7.454300000000E-02
 157 T  14 SI   -1.179540000000E-01  4.073900000000E-01 -3.044140000000E-01
 158 T  14 SI   -9.052700000000E-02  1.369510000000E-01 -1.912890000000E-01
 159 T  14 SI    4.817040000000E-01  3.451470000000E-01 -2.038020000000E-01
 160 T  14 SI    3.109920000000E-01 -4.415760000000E-01 -1.475400000000E-01
 161 T  14 SI    2.960340000000E-01 -7.649600000000E-02 -3.015630000000E-01
 162 T  14 SI    1.093770000000E-01 -2.399910000000E-01 -2.290300000000E-01
 163 T  14 SI   -8.222700000000E-02 -1.538040000000E-01 -2.745040000000E-01
 164 T  14 SI   -3.852350000000E-01  4.903340000000E-01 -3.029960000000E-01
 165 T  14 SI    5.285000000000E-02 -2.450920000000E-01 -8.297400000000E-02
 166 T  14 SI   -4.156810000000E-01 -4.221780000000E-01 -1.316250000000E-01

 T = ATOM BELONGING TO THE ASYMMETRIC UNIT

 ****   1 SYMMOPS - TRANSLATORS IN FRACTIONAL UNITS
  V INV                   ROTATION MATRICES                       TRANSLATOR
  1  1  1.00  0.00  0.00  0.00  1.00  0.00  0.00  0.00  1.00    0.00  0.00  0.00

 DIRECT LATTICE VECTORS CARTESIAN COMPONENTS (ANGSTROM)
          X                    Y                    Z
   0.110981000000E+02   0.679562632081E-15   0.000000000000E+00
   0.000000000000E+00   0.101839000000E+02   0.000000000000E+00
   0.132784778491E-14   0.132784778491E-14   0.216854000000E+02


 CARTESIAN COORDINATES - PRIMITIVE CELL
 *******************************************************************************
 *      ATOM          X(ANGSTROM)         Y(ANGSTROM)         Z(ANGSTROM)
 *******************************************************************************
   1     1 H    -3.692781794000E-01 -7.985705185000E-01  4.758427322000E-01
   2     1 H     4.609040930000E+00  4.014615586800E+00 -4.358114838000E-01
   3     1 H     2.869358264500E+00  2.311236105000E+00 -6.778639186000E-01
   4     1 H     5.158452370500E+00 -9.804549725000E-01  3.169321210000E-01
   5     1 H    -1.182036434800E+00  3.467811444100E+00  1.339940866000E-01
   6     1 H    -1.902158849500E+00  2.742432614900E+00  1.618901851600E+00
   7     1 H     1.240767580000E-01 -1.144242636200E+00  9.660650531400E+00
   8     1 H     1.000682382700E+00 -4.099223428000E-01 -8.035178003600E+00
   9     1 H    -5.030768730000E-02 -2.325900921000E-01 -9.952449273800E+00
  10     1 H     1.790978083700E+00 -4.002058838100E+00 -7.465090523000E+00
  11     1 H     2.413281845000E-01 -3.552500756500E+00 -9.482700139000E+00
  12     1 H    -4.417276860100E+00  2.906067520100E+00 -7.964266745600E+00
  13     1 H    -1.704412903700E+00 -1.330679293500E+00  1.079605470460E+01
  14     1 H     1.639744275000E+00  1.431652662000E-01 -3.349526884000E+00
  15     1 H    -1.469033300800E+00  6.682675180000E-02 -3.721908572800E+00
  16     1 H    -4.298405111000E-01  1.690517216100E+00 -5.446244839200E+00
  17     1 H     3.716243177400E+00  5.020764539000E+00 -1.855901588200E+00
  18     1 H    -1.616937679500E+00 -4.643532515200E+00 -2.256040589000E+00
  19     8 O    -4.812768751700E+00 -1.419421798100E+00 -7.727527233800E+00
  20     8 O     3.682027735100E+00  2.789736830400E+00 -8.038691038400E+00
  21     8 O    -3.542713285800E+00  2.229897295700E+00 -1.001672479940E+01
  22     8 O     3.712258959500E+00 -4.789691848000E+00 -8.767038568200E+00
  23     8 O    -3.785839362500E+00  8.281038285000E-01 -6.860458200200E+00
  24     8 O    -2.345228295800E+00 -3.987709723000E+00 -9.443818216800E+00
  25     8 O    -4.360820825400E+00 -4.989948057600E+00 -8.248757508200E+00
  26     8 O     4.807597037100E+00 -6.695812411000E-01 -1.002717716220E+01
  27     8 O     1.756007970600E+00  9.944985706000E-01 -1.035412793800E+01
  28     8 O     1.054164126600E+00  2.272944641000E+00 -8.205430079000E+00
  29     8 O    -3.683725744400E+00 -4.528372974000E-01 -9.879933296200E+00
  30     8 O    -1.732846235900E+00  6.241203115000E-01 -8.765867556600E+00
  31     8 O    -7.171259277000E-01 -4.891388273400E+00 -7.641002487800E+00
  32     8 O     5.458567190700E+00  3.673118868100E+00 -9.897780380400E+00
  33     8 O     3.078846000100E+00  3.320501330600E+00 -1.057670688360E+01
  34     8 O     3.288145068000E+00 -1.962406978300E+00 -7.748106678400E+00
  35     8 O    -4.933149842400E+00 -2.867613113700E+00 -9.715579649600E+00
  36     8 O     2.032328464400E+00 -3.133219409600E+00 -9.828538898200E+00
  37     8 O    -1.256637863000E+00 -2.044112408000E+00 -8.414715874400E+00
  38     8 O     4.596278115000E-01  3.485826763200E+00 -1.197966552200E+00
  39     8 O     2.186092639900E+00  3.418399161300E+00 -5.962530842400E+00
  40     8 O     1.524690272300E+00  4.521763622900E+00 -3.367417339000E+00
  41     8 O     5.197439995800E+00  1.878165757500E+00 -4.107323187000E+00
  42     8 O    -4.333197654500E+00  1.366333127400E+00 -2.173831237600E+00
  43     8 O    -2.778453727400E+00  4.657983469300E+00 -6.113222687000E+00
  44     8 O    -8.827317759000E-01 -2.101040409000E+00 -1.166457666000E+00
  45     8 O     5.024176458600E+00 -3.457220188100E+00 -3.247453706200E+00
  46     8 O     1.687399516400E+00 -4.041511266700E+00 -5.358484025400E+00
  47     8 O    -4.643433941900E+00 -3.739110540100E+00 -5.975780621800E+00
  48     8 O     5.449366865800E+00 -8.002610459000E-01 -2.936289901600E+00
  49     8 O    -1.422487869400E+00 -7.921037420000E-02 -6.361845798000E+00
  50     8 O     4.534461698000E-01 -2.269706160800E+00 -6.564148894600E+00
  51     8 O    -4.271836259600E+00 -1.256204432800E+00 -5.173182282400E+00
  52     8 O    -2.184683181200E+00 -2.615826370100E+00 -5.874748343200E+00
  53     8 O    -1.562912128700E+00  1.458375215600E+00 -1.455198767000E+00
  54     8 O    -2.074678814000E-01  4.156049590000E+00 -5.424212472800E+00
  55     8 O    -2.354128972000E+00  2.318385202800E+00 -3.801407249200E+00
  56     8 O     4.135540493500E+00 -2.382024393900E+00 -1.032723804200E+00
  57     8 O    -4.529722809300E+00 -4.298420512000E+00 -1.289630738000E+00
  58     8 O     2.867194135000E-01  1.901048980800E+00 -3.229780105200E+00
  59     8 O    -3.073141576700E+00  3.580557401000E+00 -1.480028550000E+00
  60     8 O     3.778559008900E+00  8.434000463000E-01 -2.110249644800E+00
  61     8 O     4.725559881900E+00 -1.613842633000E-01 -6.223991710200E+00
  62     8 O    -5.240101092200E+00  3.818453305000E+00 -6.000263438400E+00
  63     8 O     1.002557961600E+00  9.402285675000E-01 -8.263438524000E-01
  64     8 O     2.600451301500E+00 -1.531984444800E+00 -5.245264552000E+00
  65     8 O    -4.703064033200E+00  4.373292544800E+00 -3.455178152800E+00
  66     8 O    -3.451675571500E+00 -3.408826295300E+00 -3.628878206800E+00
  67     8 O    -9.250488312000E-01 -4.991251596800E+00 -2.911308320800E+00
  68     8 O     3.959147292100E+00  4.390992163000E+00 -4.201502879200E+00
  69     8 O     9.106545955000E-01 -4.104824573000E+00 -1.108969670600E+00
  70     8 O     1.732435606200E+00 -1.435542911800E+00 -1.249621175000E+00
  71     8 O     1.019981978600E+00 -2.880118942900E+00 -3.312249681400E+00
  72     8 O    -6.537890710000E-02 -1.305015865500E+00 -4.544262311600E+00
  73     8 O    -1.620522365800E+00  2.611650971100E+00 -7.127015137000E+00
  74     8 O     2.507193967200E+00  6.698562064000E-01 -6.836712687200E+00
  75    14 SI    6.035923647000E-01  3.031645191000E-01  6.493259322000E-01
  76    14 SI    3.675268992200E+00  3.088797237800E+00  2.681833418000E-01
  77    14 SI    2.338680416800E+00  4.253611352000E+00  1.805157752200E+00
  78    14 SI    4.990571411800E+00  1.849885067200E+00  1.835473941400E+00
  79    14 SI    8.351764174000E-01  3.079183636200E+00  3.191180093200E+00
  80    14 SI    3.597515703600E+00  5.994854574000E-01  3.283494841000E+00
  81    14 SI    2.136306563300E+00  1.828458141600E+00  4.706881126200E+00
  82    14 SI    4.976654394400E+00  4.411685847800E+00  4.661189988400E+00
  83    14 SI    1.407727396400E+00 -4.077694663400E+00  7.324677558000E-01
  84    14 SI    3.053819784600E+00 -2.350790372600E+00  2.810210986000E-01
  85    14 SI    2.287784530200E+00 -7.296662511000E-01  1.890598228200E+00
  86    14 SI    4.929798216200E+00 -3.237319235400E+00  1.682526815200E+00
  87    14 SI    8.149556792000E-01 -1.917455243700E+00  3.334845868200E+00
  88    14 SI    3.603974797800E+00 -4.522873668000E+00  3.236350781400E+00
  89    14 SI    2.156682674900E+00 -3.290051469600E+00  4.685130670000E+00
  90    14 SI    4.987330766600E+00 -7.997009314000E-01  4.521167360600E+00
  91    14 SI   -5.011513526500E+00  1.578300822000E-01  5.765497298000E-01
  92    14 SI   -2.209265472700E+00  4.441901479100E+00 -3.507396596000E-01
  93    14 SI   -3.358507022000E+00  4.373282360900E+00  1.801449548800E+00
  94    14 SI   -6.519356883000E-01  1.872279463300E+00  1.852063272400E+00
  95    14 SI   -4.753460505300E+00  3.136356050800E+00  3.236654377000E+00
  96    14 SI   -1.920515106900E+00  4.924526684000E-01  3.222862462600E+00
  97    14 SI   -3.346376798700E+00  1.771927312700E+00  4.571585915600E+00
  98    14 SI   -5.385020082000E-01  4.351213849600E+00  4.595223001600E+00
  99    14 SI   -4.218820635900E+00 -3.931769560300E+00  3.359068460000E-01
 100    14 SI   -1.901137824300E+00 -2.370200886000E+00  2.422909742000E-01
 101    14 SI   -3.126911871200E+00 -7.214071082000E-01  1.617318817400E+00
 102    14 SI   -4.930663868000E-01 -3.249356605200E+00  1.899901264800E+00
 103    14 SI   -4.707880608600E+00 -1.983212686000E+00  3.030079256600E+00
 104    14 SI   -1.973131199000E+00 -4.546673442300E+00  3.230951116800E+00
 105    14 SI   -3.374588168900E+00 -3.196420693000E+00  4.618057727800E+00
 106    14 SI   -5.802419623000E-01 -6.738890308000E-01  4.763067997600E+00
 107    14 SI    7.344389637000E-01  6.045468557000E-01  6.225878340000E+00
 108    14 SI    3.525888566200E+00  3.171785838900E+00  6.018717713800E+00
 109    14 SI    7.546375057000E-01 -4.548710222300E+00  6.104700324800E+00
 110    14 SI    3.550481955800E+00 -1.961826496000E+00  6.005446249000E+00
 111    14 SI   -4.777820834800E+00  4.601187859000E-01  5.905216330200E+00
 112    14 SI   -1.890738904600E+00  3.018141339600E+00  5.929742517600E+00
 113    14 SI   -4.763626364900E+00 -4.470670996600E+00  6.071478292000E+00
 114    14 SI   -2.004893961200E+00 -1.947080208800E+00  6.104505156200E+00
 115    14 SI    2.142399420200E+00  4.354645823900E+00  7.513926043800E+00
 116    14 SI    4.919177334500E+00  1.765002260700E+00  7.220002132200E+00
 117    14 SI    7.070488529000E-01  3.236871143800E+00  9.027913930200E+00
 118    14 SI    3.563999441600E+00  7.078116017000E-01  8.791955092800E+00
 119    14 SI    2.319824744900E+00  2.103168844100E+00  1.024869352320E+01
 120    14 SI    5.494003424000E+00  4.386073339300E+00  9.662884127600E+00
 121    14 SI    2.182796504200E+00 -7.336888916000E-01  7.517048741400E+00
 122    14 SI    4.838849286700E+00 -3.239875394300E+00  7.477342774000E+00
 123    14 SI    8.780816720000E-01 -2.152163587000E+00  8.831639374800E+00
 124    14 SI    3.492394500400E+00 -4.561144764200E+00  8.965741888400E+00
 125    14 SI    1.642163660800E+00 -3.767625460100E+00  1.034933546460E+01
 126    14 SI    5.241865690100E+00 -2.204916189000E-01  1.006430256700E+01
 127    14 SI   -3.235429093000E+00  4.335062184200E+00  7.266300461200E+00
 128    14 SI   -6.851744978000E-01  1.912353109800E+00  7.662405977600E+00
 129    14 SI   -4.464099744000E+00  2.735385356100E+00  8.429765542000E+00
 130    14 SI   -2.646985634800E+00  1.099199246500E+00  8.760641375200E+00
 131    14 SI   -3.806848065800E+00  8.718742307000E-01  1.073479344960E+01
 132    14 SI   -1.971910408000E-01  4.860439401300E+00  1.052806653140E+01
 133    14 SI   -3.455115982500E+00 -6.908044887000E-01  7.464721871200E+00
 134    14 SI   -6.765512741000E-01 -3.266659051300E+00  7.502649635800E+00
 135    14 SI   -4.827706794300E+00 -2.024640791200E+00  8.854669269600E+00
 136    14 SI   -1.876932868200E+00 -4.735197799100E+00  8.884768604800E+00
 137    14 SI   -3.982120359100E+00 -4.117747942100E+00  9.696648295400E+00
 138    14 SI    9.299319952000E-01  7.212747175000E-01 -8.956699076600E+00
 139    14 SI   -2.174106691900E+00  1.045682852000E+00 -7.258016638400E+00
 140    14 SI    2.343563580800E+00  2.317193686500E+00 -7.194153135400E+00
 141    14 SI   -3.918583736600E+00 -4.130854621400E+00 -9.651867944400E+00
 142    14 SI    2.750874948900E+00 -3.449816492800E+00 -8.399362611200E+00
 143    14 SI   -9.516287807000E-01 -3.687977178200E+00 -8.707555516000E+00
 144    14 SI   -4.073868351800E+00  3.521225999600E+00 -9.244399278400E+00
 145    14 SI   -4.991858791400E+00 -1.328428651600E+00 -9.323073909600E+00
 146    14 SI   -1.479865046400E+00 -8.418622774000E-01 -9.514295766800E+00
 147    14 SI    3.940724446100E+00  3.834044855900E+00 -9.284755807800E+00
 148    14 SI    4.395180543000E-01  4.795119866700E+00 -2.176086519200E+00
 149    14 SI   -4.762316789100E+00 -4.200247716000E-01 -6.455006276400E+00
 150    14 SI    5.344978137200E+00  8.248755322000E-01 -2.824826945600E+00
 151    14 SI    2.680968017000E+00 -4.138125926000E-01 -2.465087845000E+00
 152    14 SI    4.266520269700E+00 -2.017267647600E+00 -2.650281161000E+00
 153    14 SI   -3.610500480600E+00 -2.751567573200E+00 -5.125799683400E+00
 154    14 SI    1.344390539700E+00  4.565452553900E+00 -5.087828548000E+00
 155    14 SI   -2.900199884400E+00  2.167205207300E+00 -2.252896206000E+00
 156    14 SI    1.937728260000E-02  1.931967301200E+00 -1.616494772200E+00
 157    14 SI   -1.309065287400E+00  4.148819021000E+00 -6.601339355600E+00
 158    14 SI   -1.004677698700E+00  1.394695288900E+00 -4.148178480600E+00
 159    14 SI    5.345999162400E+00  3.514942533300E+00 -4.419527890800E+00
 160    14 SI    3.451420315200E+00 -4.496965826400E+00 -3.199463916000E+00
 161    14 SI    3.285414935400E+00 -7.790276144000E-01 -6.539514280200E+00
 162    14 SI    1.213876883700E+00 -2.444044344900E+00 -4.966607162000E+00
 163    14 SI   -9.125634687000E-01 -1.566324555600E+00 -5.952729041600E+00
 164    14 SI   -4.275376553500E+00  4.993512422600E+00 -6.570589458400E+00
 165    14 SI    5.865345850000E-01 -2.495992418800E+00 -1.799324379600E+00
 166    14 SI   -4.613269306100E+00 -4.299418534200E+00 -2.854340775000E+00

 *******************************************************************************
 LOCAL ATOMIC FUNCTIONS BASIS SET
 *******************************************************************************
   ATOM  X(AU)  Y(AU)  Z(AU)    NO. TYPE  EXPONENT  S COEF   P COEF   D/F/G COEF
 *******************************************************************************
   1 H  -0.698 -1.509  0.899
                                  1 S  
                                         1.873E+01 3.349E-02 0.000E+00 0.000E+00
                                         2.825E+00 2.347E-01 0.000E+00 0.000E+00
                                         6.401E-01 8.138E-01 0.000E+00 0.000E+00
                                  2 S  
                                         1.613E-01 1.000E+00 0.000E+00 0.000E+00
                             3-   5 P  
                                         1.100E+00 0.000E+00 1.000E+00 0.000E+00
   2 H   8.710  7.587 -0.824
   3 H   5.422  4.368 -1.281
   4 H   9.748 -1.853  0.599
   5 H  -2.234  6.553  0.253
   6 H  -3.595  5.182  3.059
   7 H   0.234 -2.162 18.256
   8 H   1.891 -0.775-15.184
   9 H  -0.095 -0.440-18.807
  10 H   3.384 -7.563-14.107
  11 H   0.456 -6.713-17.920
  12 H  -8.347  5.492-15.050
  13 H  -3.221 -2.515 20.402
  14 H   3.099  0.271 -6.330
  15 H  -2.776  0.126 -7.033
  16 H  -0.812  3.195-10.292
  17 H   7.023  9.488 -3.507
  18 H  -3.056 -8.775 -4.263
  19 O  -9.095 -2.682-14.603
                                 91 S  
                                         8.020E+03 1.080E-03 0.000E+00 0.000E+00
                                         1.338E+03 8.040E-03 0.000E+00 0.000E+00
                                         2.554E+02 5.324E-02 0.000E+00 0.000E+00
                                         6.922E+01 1.681E-01 0.000E+00 0.000E+00
                                         2.390E+01 3.581E-01 0.000E+00 0.000E+00
                                         9.264E+00 3.855E-01 0.000E+00 0.000E+00
                                         3.851E+00 1.468E-01 0.000E+00 0.000E+00
                                         1.212E+00 7.280E-02 0.000E+00 0.000E+00
                            92-  95 SP 
                                         4.943E+01-8.830E-03 9.580E-03 0.000E+00
                                         1.047E+01-9.150E-02 6.960E-02 0.000E+00
                                         3.235E+00-4.020E-02 2.065E-01 0.000E+00
                                         1.217E+00 3.790E-01 3.470E-01 0.000E+00
                            96-  99 SP 
                                         4.763E-01 1.000E+00 1.000E+00 0.000E+00
                           100- 103 SP 
                                         1.900E-01 1.000E+00 1.000E+00 0.000E+00
  20 O   6.958  5.272-15.191
  21 O  -6.695  4.214-18.929
  22 O   7.015 -9.051-16.567
  23 O  -7.154  1.565-12.964
  24 O  -4.432 -7.536-17.846
  25 O  -8.241 -9.430-15.588
  26 O   9.085 -1.265-18.949
  27 O   3.318  1.879-19.566
  28 O   1.992  4.295-15.506
  29 O  -6.961 -0.856-18.670
  30 O  -3.275  1.179-16.565
  31 O  -1.355 -9.243-14.439
  32 O  10.315  6.941-18.704
  33 O   5.818  6.275-19.987
  34 O   6.214 -3.708-14.642
  35 O  -9.322 -5.419-18.360
  36 O   3.841 -5.921-18.573
  37 O  -2.375 -3.863-15.902
  38 O   0.869  6.587 -2.264
  39 O   4.131  6.460-11.268
  40 O   2.881  8.545 -6.363
  41 O   9.822  3.549 -7.762
  42 O  -8.189  2.582 -4.108
  43 O  -5.251  8.802-11.552
  44 O  -1.668 -3.970 -2.204
  45 O   9.494 -6.533 -6.137
  46 O   3.189 -7.637-10.126
  47 O  -8.775 -7.066-11.293
  48 O  10.298 -1.512 -5.549
  49 O  -2.688 -0.150-12.022
  50 O   0.857 -4.289-12.404
  51 O  -8.073 -2.374 -9.776
  52 O  -4.128 -4.943-11.102
  53 O  -2.953  2.756 -2.750
  54 O  -0.392  7.854-10.250
  55 O  -4.449  4.381 -7.184
  56 O   7.815 -4.501 -1.952
  57 O  -8.560 -8.123 -2.437
  58 O   0.542  3.592 -6.103
  59 O  -5.807  6.766 -2.797
  60 O   7.140  1.594 -3.988
  61 O   8.930 -0.305-11.762
  62 O  -9.902  7.216-11.339
  63 O   1.895  1.777 -1.562
  64 O   4.914 -2.895 -9.912
  65 O  -8.888  8.264 -6.529
  66 O  -6.523 -6.442 -6.858
  67 O  -1.748 -9.432 -5.502
  68 O   7.482  8.298 -7.940
  69 O   1.721 -7.757 -2.096
  70 O   3.274 -2.713 -2.361
  71 O   1.927 -5.443 -6.259
  72 O  -0.124 -2.466 -8.587
  73 O  -3.062  4.935-13.468
  74 O   4.738  1.266-12.920
  75 SI  1.141  0.573  1.227
                                819 S  
                                         8.765E+04 2.370E-04 0.000E+00 0.000E+00
                                         1.285E+04 1.920E-03 0.000E+00 0.000E+00
                                         2.786E+03 1.090E-02 0.000E+00 0.000E+00
                                         7.280E+02 4.960E-02 0.000E+00 0.000E+00
                                         2.195E+02 1.668E-01 0.000E+00 0.000E+00
                                         7.590E+01 3.630E-01 0.000E+00 0.000E+00
                                         2.946E+01 4.051E-01 0.000E+00 0.000E+00
                                         1.199E+01 1.504E-01 0.000E+00 0.000E+00
                           820- 823 SP 
                                         1.660E+02-8.840E-03 9.090E-03 0.000E+00
                                         3.937E+01-8.590E-02 6.010E-02 0.000E+00
                                         1.271E+01-7.120E-02 1.952E-01 0.000E+00
                                         4.718E+00 4.147E-01 3.384E-01 0.000E+00
                                         1.848E+00 6.168E-01 3.006E-01 0.000E+00
                                         7.365E-01 1.154E-01 6.480E-02 0.000E+00
                           824- 827 SP 
                                         4.175E+00-1.990E-02-8.700E-03 0.000E+00
                                         1.447E+00-1.864E-01-4.380E-03 0.000E+00
                                         5.023E-01 9.670E-02 2.207E-01 0.000E+00
                           828- 831 SP 
                                         3.220E-01 1.000E+00 1.000E+00 0.000E+00
                           832- 835 SP 
                                         1.300E-01 1.000E+00 1.000E+00 0.000E+00
                           836- 840 D  
                                         6.000E-01 0.000E+00 0.000E+00 1.000E+00
  76 SI  6.945  5.837  0.507
  77 SI  4.419  8.038  3.411
  78 SI  9.431  3.496  3.469
  79 SI  1.578  5.819  6.030
  80 SI  6.798  1.133  6.205
  81 SI  4.037  3.455  8.895
  82 SI  9.405  8.337  8.808
  83 SI  2.660 -7.706  1.384
  84 SI  5.771 -4.442  0.531
  85 SI  4.323 -1.379  3.573
  86 SI  9.316 -6.118  3.180
  87 SI  1.540 -3.623  6.302
  88 SI  6.811 -8.547  6.116
  89 SI  4.076 -6.217  8.854
  90 SI  9.425 -1.511  8.544
  91 SI -9.470  0.298  1.090
  92 SI -4.175  8.394 -0.663
  93 SI -6.347  8.264  3.404
  94 SI -1.232  3.538  3.500
  95 SI -8.983  5.927  6.116
  96 SI -3.629  0.931  6.090
  97 SI -6.324  3.348  8.639
  98 SI -1.018  8.223  8.684
  99 SI -7.972 -7.430  0.635
 100 SI -3.593 -4.479  0.458
 101 SI -5.909 -1.363  3.056
 102 SI -0.932 -6.140  3.590
 103 SI -8.897 -3.748  5.726
 104 SI -3.729 -8.592  6.106
 105 SI -6.377 -6.040  8.727
 106 SI -1.096 -1.273  9.001
 107 SI  1.388  1.142 11.765
 108 SI  6.663  5.994 11.374
 109 SI  1.426 -8.596 11.536
 110 SI  6.709 -3.707 11.349
 111 SI -9.029  0.869 11.159
 112 SI -3.573  5.703 11.206
 113 SI -9.002 -8.448 11.473
 114 SI -3.789 -3.679 11.536
 115 SI  4.049  8.229 14.199
 116 SI  9.296  3.335 13.644
 117 SI  1.336  6.117 17.060
 118 SI  6.735  1.338 16.614
 119 SI  4.384  3.974 19.367
 120 SI 10.382  8.288 18.260
 121 SI  4.125 -1.386 14.205
 122 SI  9.144 -6.122 14.130
 123 SI  1.659 -4.067 16.689
 124 SI  6.600 -8.619 16.943
 125 SI  3.103 -7.120 19.557
 126 SI  9.906 -0.417 19.019
 127 SI -6.114  8.192 13.731
 128 SI -1.295  3.614 14.480
 129 SI -8.436  5.169 15.930
 130 SI -5.002  2.077 16.555
 131 SI -7.194  1.648 20.286
 132 SI -0.373  9.185 19.895
 133 SI -6.529 -1.305 14.106
 134 SI -1.278 -6.173 14.178
 135 SI -9.123 -3.826 16.733
 136 SI -3.547 -8.948 16.790
 137 SI -7.525 -7.781 18.324
 138 SI  1.757  1.363-16.926
 139 SI -4.108  1.976-13.716
 140 SI  4.429  4.379-13.595
 141 SI -7.405 -7.806-18.239
 142 SI  5.198 -6.519-15.872
 143 SI -1.798 -6.969-16.455
 144 SI -7.698  6.654-17.469
 145 SI -9.433 -2.510-17.618
 146 SI -2.797 -1.591-17.979
 147 SI  7.447  7.245-17.546
 148 SI  0.831  9.061 -4.112
 149 SI -8.999 -0.794-12.198
 150 SI 10.101  1.559 -5.338
 151 SI  5.066 -0.782 -4.658
 152 SI  8.063 -3.812 -5.008
 153 SI -6.823 -5.200 -9.686
 154 SI  2.541  8.627 -9.615
 155 SI -5.481  4.095 -4.257
 156 SI  0.037  3.651 -3.055
 157 SI -2.474  7.840-12.475
 158 SI -1.899  2.636 -7.839
 159 SI 10.102  6.642 -8.352
 160 SI  6.522 -8.498 -6.046
 161 SI  6.209 -1.472-12.358
 162 SI  2.294 -4.619 -9.386
 163 SI -1.724 -2.960-11.249
 164 SI -8.079  9.436-12.417
 165 SI  1.108 -4.717 -3.400
 166 SI -8.718 -8.125 -5.394
 INFORMATION **** TOLINTEG **** COULOMB AND EXCHANGE SERIES TOLERANCES MODIFIED
 INFORMATION **** READM2 **** FULL DIRECT SCF (MONO AND BIEL INT) SELECTED
 INFORMATION **** SMEAR **** FERMI SMEARING ACTIVE
 FERMI SMEARING - TEMPERATURE SMEARING OF FERMI SURFACE  0.1000E-12
 INFORMATION **** MAXCYCLE **** MAX NUMBER OF SCF CYCLES SET TO         150

 MODIFIED BROYDEN MIXING OF THE FOCK MATRIX
 WO PARAMETER(D.D. Johnson, PRB38, 12807,(1988)             1.0000E-04
 % OF FOCK/KS MATRICES MIXING WHEN BROYDEN METHOD IS ON             90
 NUMBER OF SCF ITERATIONS AFTER WHICH BROYDEN METHOD IS ACTIVE      80
 INFORMATION **** TOLDEE **** SCF TOL ON TOTAL ENERGY SET TO           7
 *******************************************************************************
 N. OF ATOMS PER CELL      166  COULOMB OVERLAP TOL         (T1) 10** -8
 NUMBER OF SHELLS          830  COULOMB PENETRATION TOL     (T2) 10** -8
 NUMBER OF AO             2842  EXCHANGE OVERLAP TOL        (T3) 10** -8
 N. OF ELECTRONS PER CELL 1754  EXCHANGE PSEUDO OVP (F(G))  (T4) 10** -8
 CORE ELECTRONS PER CELL  1032  EXCHANGE PSEUDO OVP (P(G))  (T5) 10**-16
 N. OF SYMMETRY OPERATORS    1  POLE ORDER IN MONO ZONE                4
 *******************************************************************************
 TYPE OF CALCULATION :  UNRESTRICTED OPEN SHELL
 KOHN-SHAM HAMILTONIAN

 (EXCHANGE)[CORRELATION] FUNCTIONAL:(BECKE)[LEE-YANG-PARR]

 NON-LOCAL WEIGHTING FACTOR (EXCHANGE) =           0.9000
 NON-LOCAL WEIGHTING FACTOR [CORRELATION] =        0.8100

 HYBRID EXCHANGE - PERCENTAGE OF FOCK EXCHANGE     5.0000

 SPIN POLARIZED DFT SELECTED

 CAPPA:IS1  2;IS2  2;IS3  2; K PTS MONK NET    8; SYMMOPS: K SPACE  2;G SPACE  1

 *******************************************************************************
 MAX NUMBER OF SCF CYCLES     150  CONVERGENCE ON DELTAP        10**-17
 WEIGHT OF F(I) IN F(I+1)      92% CONVERGENCE ON ENERGY        10**- 7
 SHRINK. FACT.(MONKH.)    2  2  2  NUMBER OF K POINTS IN THE IBZ      8
 SHRINKING FACTOR(GILAT NET)    2  NUMBER OF K POINTS(GILAT NET)      8
 *******************************************************************************
 *** K POINTS COORDINATES (OBLIQUE COORDINATES IN UNITS OF IS =  2)
   1-R(  0  0  0)   2-R(  1  0  0)   3-R(  0  1  0)   4-R(  1  1  0)
   5-R(  0  0  1)   6-R(  1  0  1)   7-R(  0  1  1)   8-R(  1  1  1)

 DIRECT LATTICE VECTORS COMPON. (A.U.)     RECIP. LATTICE VECTORS COMPON. (A.U.) 
        X            Y            Z              X            Y            Z
   20.9723696    0.0000000    0.0000000      0.2995935    0.0000000    0.0000000
    0.0000000   19.2447820    0.0000000      0.0000000    0.3264877    0.0000000
    0.0000000    0.0000000   40.9794671      0.0000000    0.0000000    0.1533252

 DISK SPACE FOR EIGENVECTORS (FTN 10)   64615712 REALS

 SYMMETRY ADAPTION OF THE BLOCH FUNCTIONS DISABLED
 TTTTTTTTTTTTTTTTTTTTTTTTTTTTTT gordsh1     TELAPSE        3.69 TCPU        0.76

 DIMENSIONS  P(G)= 6763552 F(G)= 1205447 P(G),F(G) (IRR) 3391263
 MAX G-VECTOR INDEX FOR 1- AND 2-ELECTRON INTEGRALS  55

 TTTTTTTTTTTTTTTTTTTTTTTTTTTTTT INPUT       TELAPSE        4.09 TCPU        1.16

 NEIGHBORS OF THE NON-EQUIVALENT ATOMS

 N = NUMBER OF NEIGHBORS AT DISTANCE R
    ATOM  N     R/ANG      R/AU   NEIGHBORS (ATOM LABELS AND CELL INDICES)
   1 H    1     1.4800     2.7968  75 SI   0 0 0
   1 H    1     2.1581     4.0781  44 O    0 0 0
   1 H    1     2.2071     4.1708 100 SI   0 0 0
   1 H    1     2.5693     4.8552  63 O    0 0 0
   1 H    1     2.7929     5.2778  70 O    0 0 0
   1 H    1     2.8372     5.3615 102 SI   0 0 0

   2 H    1     1.4915     2.8186  76 SI   0 0 0
   2 H    1     1.9560     3.6964  17 H    0 0 0
   2 H    1     2.4468     4.6237   3 H    0 0 0
   2 H    1     2.8404     5.3677  57 O    1 1 0
   2 H    1     3.1608     5.9730  78 SI   0 0 0
   2 H    1     3.1990     6.0452  77 SI   0 0 0

   3 H    1     1.4660     2.7703  76 SI   0 0 0
   3 H    1     2.2434     4.2394  60 O    0 0 0
   3 H    1     2.3209     4.3859  63 O    0 0 0
   3 H    1     2.4468     4.6237   2 H    0 0 0
   3 H    1     2.7307     5.1604  38 O    0 0 0
   3 H    1     3.0244     5.7154 156 SI   0 0 0

   4 H    1     1.4915     2.8185  91 SI   1 0 0
   4 H    1     2.1983     4.1541  56 O    0 0 0
   4 H    1     2.5117     4.7464  84 SI   0 0 0
   4 H    1     2.6477     5.0035  86 SI   0 0 0
   4 H    1     3.1096     5.8763 101 SI   1 0 0
   4 H    1     3.1439     5.9411 103 SI   1 0 0

   5 H    1     1.4963     2.8277  92 SI   0 0 0
   5 H    1     1.8027     3.4066   6 H    0 0 0
   5 H    1     2.1141     3.9951  38 O    0 0 0
   5 H    1     2.4038     4.5426  94 SI   0 0 0
   5 H    1     2.4888     4.7031  59 O    0 0 0
   5 H    1     2.5901     4.8945  53 O    0 0 0

   6 H    1     1.5410     2.9120  94 SI   0 0 0
   6 H    1     1.8027     3.4066   5 H    0 0 0
   6 H    1     2.1941     4.1462  93 SI   0 0 0
   6 H    1     2.6195     4.9502  92 SI   0 0 0
   6 H    1     2.7632     5.2217  96 SI   0 0 0
   6 H    1     3.1747     5.9992  79 SI   0 0 0

   7 H    1     1.5072     2.8482 123 SI   0 0 0
   7 H    1     2.1604     4.0825  13 H    0 0 0
   7 H    1     2.2707     4.2909   9 H    0 0 1
   7 H    1     2.9944     5.6586 146 SI   0 0 1
   7 H    1     3.0003     5.6698 121 SI   0 0 0
   7 H    1     3.1082     5.8737 125 SI   0 0 0

   8 H    1     1.4608     2.7604 138 SI   0 0 0
   8 H    1     2.1936     4.1453   9 H    0 0 0
   8 H    1     2.2072     4.1710  74 O    0 0 0
   8 H    1     2.4336     4.5988  50 O    0 0 0
   8 H    1     2.6888     5.0811  28 O    0 0 0
   8 H    1     2.7556     5.2073 161 SI   0 0 0

   9 H    1     1.6146     3.0511 146 SI   0 0 0
   9 H    1     1.6918     3.1971 138 SI   0 0 0
   9 H    1     2.1936     4.1453   8 H    0 0 0
   9 H    1     2.1954     4.1486  13 H    0 0-1
   9 H    1     2.2203     4.1958  27 O    0 0 0
   9 H    1     2.2300     4.2141  30 O    0 0 0

  10 H    1     1.4489     2.7380 142 SI   0 0 0
  10 H    1     2.1095     3.9864  46 O    0 0 0
  10 H    1     2.3668     4.4726  50 O    0 0 0
  10 H    1     2.4509     4.6315  22 O    0 0 0
  10 H    1     2.5296     4.7803  36 O    0 0 0
  10 H    1     2.5459     4.8111  34 O    0 0 0

  11 H    1     1.4291     2.7006 143 SI   0 0 0
  11 H    1     1.8717     3.5369  36 O    0 0 0
  11 H    1     2.3331     4.4090 125 SI   0 0-1
  11 H    1     2.3790     4.4957  37 O    0 0 0
  11 H    1     2.4704     4.6685  31 O    0 0 0
  11 H    1     2.4765     4.6799 132 SI   0-1-1

  12 H    1     1.4612     2.7613 144 SI   0 0 0
  12 H    1     2.3062     4.3581  25 O    0 1 0
  12 H    1     2.3166     4.3778  62 O    0 0 0
  12 H    1     2.3312     4.4054  21 O    0 0 0
  12 H    1     2.4126     4.5592  32 O   -1 0 0
  12 H    1     2.4362     4.6037  23 O    0 0 0

  13 H    1     1.4765     2.7902 146 SI   0 0 1
  13 H    1     2.1604     4.0825   7 H    0 0 0
  13 H    1     2.1954     4.1486   9 H    0 0 1
  13 H    1     2.3890     4.5145  29 O    0 0 1
  13 H    1     2.6141     4.9398  37 O    0 0 1
  13 H    1     2.8864     5.4545  30 O    0 0 1

  14 H    1     1.4753     2.7880 151 SI   0 0 0
  14 H    1     2.2215     4.1981  58 O    0 0 0
  14 H    1     2.5362     4.7926  72 O    0 0 0
  14 H    1     2.5692     4.8550  60 O    0 0 0
  14 H    1     2.6288     4.9677  70 O    0 0 0
  14 H    1     2.7061     5.1138  64 O    0 0 0

  15 H    1     1.4699     2.7777 158 SI   0 0 0
  15 H    1     2.1280     4.0214  72 O    0 0 0
  15 H    1     2.4206     4.5742  55 O    0 0 0
  15 H    1     2.5864     4.8875  58 O    0 0 0
  15 H    1     2.5864     4.8876  16 H    0 0 0
  15 H    1     2.6444     4.9972  49 O    0 0 0

  16 H    1     1.4501     2.7404 158 SI   0 0 0
  16 H    1     2.2261     4.2068  49 O    0 0 0
  16 H    1     2.2564     4.2639  73 O    0 0 0
  16 H    1     2.3389     4.4199  58 O    0 0 0
  16 H    1     2.4756     4.6783  54 O    0 0 0
  16 H    1     2.5864     4.8876  15 H    0 0 0

  17 H    1     1.5229     2.8778 160 SI   0 1 0
  17 H    1     1.9560     3.6964   2 H    0 0 0
  17 H    1     2.4408     4.6124  68 O    0 0 0
  17 H    1     2.5607     4.8390  45 O    0 1 0
  17 H    1     2.7086     5.1185  40 O    0 0 0
  17 H    1     2.8716     5.4265  76 SI   0 0 0

  18 H    1     1.0144     1.9169  67 O    0 0 0
  18 H    1     2.1888     4.1362 148 SI   0-1 0
  18 H    1     2.2776     4.3041  92 SI   0-1 0
  18 H    1     2.5619     4.8414  59 O    0-1 0
  18 H    1     2.6030     4.9189  66 O    0 0 0
  18 H    1     2.8275     5.3432  69 O    0 0 0

  19 O    1     1.6081     3.0389 145 SI   0 0 0
  19 O    1     1.6188     3.0592 149 SI   0 0 0
  19 O    1     2.4625     4.6535  35 O    0 0 0
  19 O    1     2.5052     4.7342  61 O   -1 0 0
  19 O    1     2.6157     4.9430  29 O    0 0 0
  19 O    1     2.6161     4.9437  51 O    0 0 0

  20 O    1     1.6463     3.1110 147 SI   0 0 0
  20 O    1     1.6517     3.1212 140 SI   0 0 0
  20 O    1     2.6350     4.9795  39 O    0 0 0
  20 O    1     2.6622     5.0307  33 O    0 0 0
  20 O    1     2.6834     5.0709  28 O    0 0 0
  20 O    1     2.7046     5.1109  22 O    0 1 0

  21 O    1     1.5957     3.0154 144 SI   0 0 0
  21 O    1     1.6692     3.1543 131 SI   0 0-1
  21 O    1     2.3312     4.4054  12 H    0 0 0
  21 O    1     2.5483     4.8155  32 O   -1 0 0
  21 O    1     2.6899     5.0832  29 O    0 0 0
  21 O    1     2.7237     5.1471  30 O    0 0 0

  22 O    1     1.6596     3.1362 147 SI   0-1 0
  22 O    1     1.6896     3.1929 142 SI   0 0 0
  22 O    1     2.4509     4.6315  10 H    0 0 0
  22 O    1     2.5871     4.8888  36 O    0 0 0
  22 O    1     2.7001     5.1024  32 O    0-1 0
  22 O    1     2.7046     5.1109  20 O    0-1 0

  23 O    1     1.6358     3.0911 149 SI   0 0 0
  23 O    1     1.6742     3.1639 139 SI   0 0 0
  23 O    1     2.4362     4.6037  12 H    0 0 0
  23 O    1     2.5802     4.8758  49 O    0 0 0
  23 O    1     2.6187     4.9487  19 O    0 0 0
  23 O    1     2.7253     5.1501  51 O    0 0 0

  24 O    1     1.5935     3.0113 141 SI   0 0 0
  24 O    1     1.6044     3.0318 143 SI   0 0 0
  24 O    1     2.4539     4.6372  37 O    0 0 0
  24 O    1     2.5486     4.8161  25 O    0 0 0
  24 O    1     2.5918     4.8978  31 O    0 0 0
  24 O    1     2.6232     4.9571  11 H    0 0 0

  25 O    1     1.6923     3.1979 164 SI   0-1 0
  25 O    1     1.7036     3.2194 141 SI   0 0 0
  25 O    1     1.9677     3.7183 144 SI   0-1 0
  25 O    1     2.3062     4.3581  12 H    0-1 0
  25 O    1     2.5486     4.8161  24 O    0 0 0
  25 O    1     2.5821     4.8795  32 O   -1-1 0

  26 O    1     1.6175     3.0566 145 SI   1 0 0
  26 O    1     1.7120     3.2352 126 SI   0 0-1
  26 O    1     2.6021     4.9172  35 O    1 0 0
  26 O    1     2.6199     4.9509  29 O    1 0 0
  26 O    1     2.8345     5.3564  19 O    1 0 0
  26 O    1     3.0289     5.7238  34 O    0 0 0

  27 O    1     1.6462     3.1108 138 SI   0 0 0
  27 O    1     1.6489     3.1161 119 SI   0 0-1
  27 O    1     2.2203     4.1958   9 H    0 0 0
  27 O    1     2.5969     4.9074  28 O    0 0 0
  27 O    1     2.6851     5.0741  33 O    0 0 0
  27 O    1     2.8143     5.3183   8 H    0 0 0

  28 O    1     1.6393     3.0978 140 SI   0 0 0
  28 O    1     1.7284     3.2663 138 SI   0 0 0
  28 O    1     2.5602     4.8381  74 O    0 0 0
  28 O    1     2.5969     4.9074  27 O    0 0 0
  28 O    1     2.6834     5.0709  20 O    0 0 0
  28 O    1     2.6888     5.0811   8 H    0 0 0

  29 O    1     1.6697     3.1553 145 SI   0 0 0
  29 O    1     1.7077     3.2272 131 SI   0 0-1
  29 O    1     2.2676     4.2852 146 SI   0 0 0
  29 O    1     2.3890     4.5145  13 H    0 0-1
  29 O    1     2.4914     4.7080  30 O    0 0 0
  29 O    1     2.6157     4.9430  19 O    0 0 0

  30 O    1     1.6267     3.0740 139 SI   0 0 0
  30 O    1     1.6653     3.1470 146 SI   0 0 0
  30 O    1     2.2300     4.2141   9 H    0 0 0
  30 O    1     2.4914     4.7080  29 O    0 0 0
  30 O    1     2.5239     4.7696  49 O    0 0 0
  30 O    1     2.5785     4.8727  73 O    0 0 0

  31 O    1     1.6250     3.0709 143 SI   0 0 0
  31 O    1     1.6551     3.1277 157 SI   0-1 0
  31 O    1     2.4704     4.6685  11 H    0 0 0
  31 O    1     2.5427     4.8051  54 O    0-1 0
  31 O    1     2.5918     4.8978  24 O    0 0 0
  31 O    1     2.6431     4.9947  43 O    0-1 0

  32 O    1     1.6449     3.1083 147 SI   0 0 0
  32 O    1     1.7033     3.2188 144 SI   1 0 0
  32 O    1     2.2414     4.2357 120 SI   0 0-1
[...]
  -0.0013292   0.0075438  -0.0011707   0.0010593  -0.0012682  -0.0002689
   0.6955480  -0.0040721  -0.0038045  -0.0016413   0.0023672  -0.0038970
  -0.0035525   0.0001929  -0.0025488   0.0126359   0.0283050   0.0033518
   0.0178546   0.0016570   0.0455119   0.0070528   0.0081280  -0.0018393
  -0.0004283  -0.0133673  -0.0022029  -0.0086895   0.0150220  -0.0016749
  -0.0034797   0.0004487   0.0004958   0.0004988  -0.0001221  -0.0016459
  -0.0015032  -0.0022104  -0.0015065   0.0019662  -0.0024179  -0.0015822
  -0.0018656   0.0038964   0.0009101   0.0015000  -0.0115187  -0.0346790
   0.0005299   0.0021266  -0.0150364   0.0025215  -0.1094886   0.0006789
   0.0019377  -0.0000632  -0.0909924   0.0000031  -0.0052916  -0.5675706
  -0.0013962   0.0002555  -0.0037935   0.0002422  -0.0002469   0.0159224
   0.0032177  -0.0009282  -0.0006603  -0.0000131   0.0037820   0.0002806
  -0.0014906   0.0003367   0.0005890  -0.0003565   0.0000183  -0.0000485
  -0.0001264  -0.0064282   0.0013227   0.0001787
 TTTTTTTTTTTTTTTTTTTTTTTTTTTTTT MOQGAD      TELAPSE    32322.14 TCPU    31024.29
 WARNING **** GENBUD **** COUL. BIPO BUFFER TOO SMALL - TO AVOID I/O SET BIPOSIZE =     2257900
 TTTTTTTTTTTTTTTTTTTTTTTTTTTTTT SHELLX      TELAPSE    32421.91 TCPU    31120.10
 TTTTTTTTTTTTTTTTTTTTTTTTTTTTTT MONMO3      TELAPSE    32487.05 TCPU    31185.14
 NUMERICALLY INTEGRATED DENSITY    877.0000760234    877.0000727500
 TTTTTTTTTTTTTTTTTTTTTTTTTTTTTT NUMDFT      TELAPSE    32497.83 TCPU    31195.91
 CYC 147 ETOT(AU) -3.085521218379E+04 DETOT  2.80E-04 tst  2.69E-05 PX  1.50E-02
 MODIFIED BROYDEN: MIX%=  90 W0=  1.000000000000E-04 W=  4.594359952784E+00
 TTTTTTTTTTTTTTTTTTTTTTTTTTTTTT FDIK        TELAPSE    32593.99 TCPU    31285.10

    ALPHA      ELECTRONS
 INSULATING STATE
 TOP OF VALENCE BANDS -    BAND    877; K    8; EIG -8.9482147E-02 AU
 TOP OF VALENCE BANDS -    BAND    877; K    1; EIG -9.1271784E-02 AU
 BOTTOM OF VIRTUAL BANDS - BAND    878; K    5; EIG -8.5053396E-02 AU
 BOTTOM OF VIRTUAL BANDS - BAND    878; K    1; EIG -8.4984498E-02 AU

    BETA       ELECTRONS
 INSULATING STATE
 TOP OF VALENCE BANDS -    BAND    877; K    4; EIG -8.9522070E-02 AU
 TOP OF VALENCE BANDS -    BAND    877; K    1; EIG -9.1271784E-02 AU
 BOTTOM OF VIRTUAL BANDS - BAND    878; K    5; EIG -7.4063356E-02 AU
 BOTTOM OF VIRTUAL BANDS - BAND    878; K    1; EIG -8.4984498E-02 AU
 TTTTTTTTTTTTTTTTTTTTTTTTTTTTTT PDIG        TELAPSE    32597.72 TCPU    31288.83
 CHARGE NORMALIZATION FACTOR   1.00000000
 TOTAL ATOMIC CHARGES:
   1.1777069   1.0742152   1.0245217   1.1015019   1.1658889   1.0934927
   1.1226105   0.9939492   1.1948163   1.0746019   1.1819484   1.0491680
   1.0206050   1.0241937   1.0495707   1.1383725   1.1443885   0.7485864
   8.6101348   8.5780493   8.5881422   8.6933581   8.5849650   8.5548809
   8.7202641   8.5298574   8.6258856   8.6213102   8.7878591   8.6642270
   8.6599941   8.7699155   8.6896152   8.7421867   8.4951376   8.6643547
   8.7201894   8.5653349   8.6326348   8.6915307   8.6415439   8.6536533
   8.5666493   8.6294865   8.7800413   8.6349098   8.5469791   8.6204641
   8.7221283   8.6206285   8.5406276   8.5640222   8.6128240   8.6391092
   8.5622004   8.6016272   8.5805149   8.5919865   8.5903723   8.6683509
   8.6205253   8.5418385   8.6111336   8.6012630   8.6338963   8.5314320
   8.3910274   8.7013774   8.7928152   8.7969968   8.6876146   8.6643036
   8.6932028   8.7702322  13.4390313  13.7218612  14.0363102  14.0756114
  14.0024448  14.0164260  13.9981517  13.9929354  13.6807836  13.5495833
  14.0422421  13.9705742  14.0239100  14.0558500  13.9848846  13.9909240
  13.7995078  13.7384938  14.0986346  13.8802597  13.9843390  14.0299660
  13.9677949  13.9848987  13.6582733  13.5829322  14.0397861  14.0346587
  14.0375817  13.9838885  13.9691760  14.0018556  14.0025868  14.0027284
  13.9851034  13.9947858  13.9998851  14.0223283  13.9838194  13.9975873
  14.0290504  13.9960756  14.0973164  14.0651535  13.2707890  13.7189958
  14.0048212  14.0426322  13.9038882  13.9999356  13.6678047  13.7538727
  14.0494736  13.9771195  14.0594894  14.0322527  13.3899604  14.0420353
  14.0234499  14.0151258  13.9610710  13.9871462  14.0306942  12.9417248
  12.6439868  12.7556606  13.3098261  12.7580308  12.7595826  13.2469613
  12.8677036  13.0238631  12.6704799  12.8773179  12.8270873  12.7088508
  13.1749809  13.1960583  12.8927801  12.6301255  12.7780919  12.9492320
  12.6405125  13.2232891  12.7186847  13.3479153  12.6483674  12.7723148
  12.8888939  12.8743783  12.6539537  12.7630547
 SUMMED SPIN DENSITY           0.00000000
 TOTAL ATOMIC SPINS  :
  -0.0000502   0.0002972  -0.0000493  -0.0053044  -0.0003497   0.0003522
  -0.0001747   0.0000134  -0.0000009  -0.0000301   0.0003301  -0.0150282
  -0.0000048  -0.0001083  -0.0000150   0.0000703  -0.0000769  -0.0005181
  -0.0005640  -0.0000082  -0.0019751  -0.0001517  -0.0001760  -0.0049494
  -0.0270587  -0.0000989   0.0000211  -0.0001070  -0.0016553  -0.0004173
   0.0001601   0.0050368  -0.0003513   0.0000100  -0.0044074  -0.0000380
  -0.0009909   0.0000466  -0.0000014  -0.0000308   0.0007432   0.0122882
  -0.0004972  -0.0006113  -0.0000826   0.0000219  -0.0016071   0.0002778
  -0.0000253  -0.0000126   0.0000307  -0.0000230   0.0003152  -0.0000651
   0.0008589  -0.0001202  -0.0002760   0.0000465  -0.0001900   0.0006795
   0.0000116  -0.0013252   0.0001295  -0.0000090   0.0000612  -0.0001741
  -0.0001127  -0.0000291  -0.0002305  -0.0003832   0.0001388  -0.0000032
  -0.0008163  -0.0000205   0.0001983   0.0092687   0.0033015  -0.0091934
  -0.0004462   0.0394899   0.0172143   0.0031040   0.0058902   0.0078635
  -0.0013391   0.0076157  -0.0011773   0.0010832  -0.0012479  -0.0002922
   0.6958809  -0.0044377  -0.0039651  -0.0016888   0.0023592  -0.0038924
  -0.0036093   0.0001764  -0.0027420   0.0124224   0.0284837   0.0033303
   0.0178515   0.0016496   0.0455360   0.0070607   0.0081507  -0.0018423
  -0.0004451  -0.0132909  -0.0021468  -0.0088061   0.0150145  -0.0016582
  -0.0034049   0.0004535   0.0005174   0.0005146  -0.0000741  -0.0017560
  -0.0014977  -0.0021385  -0.0014884   0.0019807  -0.0022785  -0.0016313
  -0.0018587   0.0038857   0.0008843   0.0015084  -0.0114714  -0.0339406
   0.0005146   0.0021723  -0.0148388   0.0025171  -0.1098736   0.0006508
   0.0018433  -0.0000543  -0.0910590  -0.0000152  -0.0052236  -0.5671109
  -0.0014560   0.0002492  -0.0037582   0.0001733  -0.0001750   0.0158656
   0.0032623  -0.0008843  -0.0005996   0.0000255   0.0038369   0.0002699
  -0.0014076   0.0003346   0.0005525  -0.0003626   0.0000533  -0.0000340
  -0.0001397  -0.0063618   0.0012871   0.0001822
 TTTTTTTTTTTTTTTTTTTTTTTTTTTTTT MOQGAD      TELAPSE    32598.00 TCPU    31289.11
 WARNING **** GENBUD **** COUL. BIPO BUFFER TOO SMALL - TO AVOID I/O SET BIPOSIZE =     2257900
 TTTTTTTTTTTTTTTTTTTTTTTTTTTTTT SHELLX      TELAPSE    32696.34 TCPU    31385.88
 TTTTTTTTTTTTTTTTTTTTTTTTTTTTTT MONMO3      TELAPSE    32703.89 TCPU    31393.43
 NUMERICALLY INTEGRATED DENSITY    877.0000760891    877.0000728201
 TTTTTTTTTTTTTTTTTTTTTTTTTTTTTT NUMDFT      TELAPSE    32710.52 TCPU    31400.03
 CYC 148 ETOT(AU) -3.085521279620E+04 DETOT -6.12E-04 tst  4.53E-07 PX  6.60E-03
 MODIFIED BROYDEN: MIX%=  90 W0=  1.000000000000E-04 W=  1.300376132032E+01
 TTTTTTTTTTTTTTTTTTTTTTTTTTTTTT FDIK        TELAPSE    32821.86 TCPU    31505.49

    ALPHA      ELECTRONS
 INSULATING STATE
 TOP OF VALENCE BANDS -    BAND    877; K    8; EIG -8.9448843E-02 AU
 TOP OF VALENCE BANDS -    BAND    877; K    1; EIG -9.1242188E-02 AU
 BOTTOM OF VIRTUAL BANDS - BAND    878; K    5; EIG -8.5130619E-02 AU
 BOTTOM OF VIRTUAL BANDS - BAND    878; K    1; EIG -8.5062335E-02 AU

    BETA       ELECTRONS
 INSULATING STATE
 TOP OF VALENCE BANDS -    BAND    877; K    4; EIG -8.9487105E-02 AU
 TOP OF VALENCE BANDS -    BAND    877; K    1; EIG -9.1242188E-02 AU
 BOTTOM OF VIRTUAL BANDS - BAND    878; K    5; EIG -7.4040994E-02 AU
 BOTTOM OF VIRTUAL BANDS - BAND    878; K    1; EIG -8.5062335E-02 AU
 TTTTTTTTTTTTTTTTTTTTTTTTTTTTTT PDIG        TELAPSE    32825.08 TCPU    31508.72
 CHARGE NORMALIZATION FACTOR   1.00000000
 TOTAL ATOMIC CHARGES:
   1.1780409   1.0743645   1.0246363   1.1011864   1.1659819   1.0936527
   1.1227446   0.9940410   1.1947787   1.0746157   1.1818293   1.0491452
   1.0204367   1.0242099   1.0496336   1.1382355   1.1443986   0.7487304
   8.6101337   8.5781724   8.5882187   8.6936622   8.5849878   8.5542133
   8.7207389   8.5306262   8.6257486   8.6211149   8.7879522   8.6641683
   8.6599463   8.7702463   8.6892944   8.7422597   8.4954384   8.6639675
   8.7201654   8.5654354   8.6326462   8.6911488   8.6420894   8.6528117
   8.5666879   8.6298103   8.7800028   8.6348515   8.5466999   8.6205059
   8.7221512   8.6202390   8.5404780   8.5640586   8.6130203   8.6393880
   8.5622970   8.6010692   8.5804540   8.5917871   8.5911182   8.6678784
   8.6205356   8.5415768   8.6109500   8.6013978   8.6338372   8.5315552
   8.3911693   8.7012439   8.7929300   8.7973482   8.6879863   8.6645654
   8.6931383   8.7703941  13.4399865  13.7226863  14.0356602  14.0763977
  14.0009737  14.0148990  13.9958471  13.9927672  13.6816349  13.5513449
  14.0422462  13.9700847  14.0227855  14.0545590  13.9842636  13.9899425
  13.8038426  13.7382961  14.0984188  13.8809941  13.9851657  14.0310514
  13.9682328  13.9835111  13.6572867  13.5839142  14.0415578  14.0340049
  14.0381641  13.9833355  13.9686403  14.0014279  14.0018868  14.0015347
  13.9848019  13.9944853  13.9984009  14.0209783  13.9845008  13.9975599
  14.0282114  13.9948796  14.0975381  14.0638672  13.2706917  13.7211456
  14.0044395  14.0437433  13.9042759  13.9997652  13.6678256  13.7529255
  14.0481922  13.9770632  14.0595797  14.0321174  13.3902372  14.0428289
  14.0227320  14.0156312  13.9605091  13.9871268  14.0306453  12.9418865
  12.6440718  12.7556411  13.3103643  12.7580273  12.7597461  13.2483307
  12.8674988  13.0243468  12.6704609  12.8775425  12.8272002  12.7093207
  13.1753461  13.1964570  12.8929412  12.6300348  12.7783320  12.9493829
  12.6405665  13.2234288  12.7186895  13.3476895  12.6482844  12.7722471
  12.8890048  12.8747153  12.6539505  12.7634753
 SUMMED SPIN DENSITY           0.00000000
 TOTAL ATOMIC SPINS  :
  -0.0000432   0.0002903  -0.0000439  -0.0052360  -0.0003359   0.0003442
  -0.0001972   0.0000205  -0.0000151  -0.0000297   0.0003339  -0.0150501
  -0.0000197  -0.0001013  -0.0000100   0.0000734  -0.0000673  -0.0005034
  -0.0005568  -0.0000088  -0.0020622  -0.0001201  -0.0001774  -0.0050915
  -0.0270049  -0.0000620  -0.0000268  -0.0001159  -0.0016610  -0.0003922
   0.0001451   0.0050057  -0.0004504   0.0000154  -0.0044070  -0.0000953
  -0.0009928   0.0001090  -0.0000064  -0.0000716   0.0008247   0.0121579
  -0.0004997  -0.0005559  -0.0000886   0.0000173  -0.0016283   0.0002959
  -0.0000271  -0.0000485   0.0000074  -0.0000064   0.0002903  -0.0000291
   0.0008627  -0.0001135  -0.0003077   0.0000315  -0.0001039   0.0006483
   0.0000058  -0.0013700   0.0001138  -0.0000010   0.0000423  -0.0001616
  -0.0001536  -0.0000369  -0.0002057  -0.0003447   0.0001713   0.0000092
  -0.0008141  -0.0000032   0.0001884   0.0092595   0.0032579  -0.0092169
  -0.0004674   0.0394392   0.0171357   0.0030858   0.0058540   0.0078493
  -0.0013374   0.0076241  -0.0011697   0.0010430  -0.0012272  -0.0003118
   0.6964115  -0.0046125  -0.0040954  -0.0017113   0.0023305  -0.0039336
  -0.0036420   0.0001481  -0.0028417   0.0123760   0.0285077   0.0033176
   0.0178821   0.0016215   0.0455535   0.0070577   0.0081148  -0.0018602
  -0.0003938  -0.0132681  -0.0021813  -0.0088743   0.0150261  -0.0016427
  -0.0034171   0.0004460   0.0005247   0.0004901  -0.0000176  -0.0017927
  -0.0014641  -0.0020875  -0.0014739   0.0019936  -0.0023121  -0.0016311
  -0.0019447   0.0038437   0.0008364   0.0014577  -0.0114097  -0.0342370
   0.0004917   0.0021969  -0.0148241   0.0024898  -0.1099236   0.0006745
   0.0018539  -0.0000556  -0.0906265   0.0000031  -0.0052429  -0.5664183
  -0.0014867   0.0002469  -0.0037191   0.0001944  -0.0001865   0.0158794
   0.0032575  -0.0008843  -0.0005925   0.0000486   0.0038569   0.0002600
  -0.0014185   0.0003192   0.0005428  -0.0003466   0.0000338  -0.0000413
  -0.0001455  -0.0062719   0.0011761   0.0001962
 TTTTTTTTTTTTTTTTTTTTTTTTTTTTTT MOQGAD      TELAPSE    32825.18 TCPU    31508.81
 WARNING **** GENBUD **** COUL. BIPO BUFFER TOO SMALL - TO AVOID I/O SET BIPOSIZE =     2257900
 TTTTTTTTTTTTTTTTTTTTTTTTTTTTTT SHELLX      TELAPSE    32923.68 TCPU    31605.04
 TTTTTTTTTTTTTTTTTTTTTTTTTTTTTT MONMO3      TELAPSE    32932.74 TCPU    31614.08
 NUMERICALLY INTEGRATED DENSITY    877.0000760480    877.0000727852
 TTTTTTTTTTTTTTTTTTTTTTTTTTTTTT NUMDFT      TELAPSE    32939.73 TCPU    31621.06
 CYC 149 ETOT(AU) -3.085521282767E+04 DETOT -3.15E-05 tst  7.27E-08 PX  1.81E-03
 MODIFIED BROYDEN: MIX%=  90 W0=  1.000000000000E-04 W=  1.896255765554E+01
 TTTTTTTTTTTTTTTTTTTTTTTTTTTTTT FDIK        TELAPSE    33038.15 TCPU    31713.61

    ALPHA      ELECTRONS
 INSULATING STATE
 TOP OF VALENCE BANDS -    BAND    877; K    8; EIG -8.9454101E-02 AU
 TOP OF VALENCE BANDS -    BAND    877; K    1; EIG -9.1256718E-02 AU
 BOTTOM OF VIRTUAL BANDS - BAND    878; K    5; EIG -8.5142029E-02 AU
 BOTTOM OF VIRTUAL BANDS - BAND    878; K    1; EIG -8.5073581E-02 AU

    BETA       ELECTRONS
 INSULATING STATE
 TOP OF VALENCE BANDS -    BAND    877; K    4; EIG -8.9497682E-02 AU
 TOP OF VALENCE BANDS -    BAND    877; K    1; EIG -9.1256718E-02 AU
 BOTTOM OF VIRTUAL BANDS - BAND    878; K    5; EIG -7.4065616E-02 AU
 BOTTOM OF VIRTUAL BANDS - BAND    878; K    1; EIG -8.5073581E-02 AU
 TTTTTTTTTTTTTTTTTTTTTTTTTTTTTT PDIG        TELAPSE    33041.54 TCPU    31716.99
 CHARGE NORMALIZATION FACTOR   1.00000000
 TOTAL ATOMIC CHARGES:
   1.1780848   1.0743531   1.0244535   1.1009386   1.1659548   1.0936077
   1.1228308   0.9940325   1.1948296   1.0746029   1.1817600   1.0491184
   1.0204621   1.0242358   1.0496431   1.1381797   1.1445024   0.7486388
   8.6100754   8.5782043   8.5881669   8.6937424   8.5849685   8.5539349
   8.7207617   8.5308057   8.6257045   8.6210623   8.7880021   8.6641667
   8.6599256   8.7702750   8.6891312   8.7422983   8.4955129   8.6637843
   8.7200632   8.5655553   8.6326513   8.6909790   8.6423194   8.6524011
   8.5667282   8.6297197   8.7799477   8.6348391   8.5465641   8.6204712
   8.7221350   8.6201248   8.5403777   8.5640814   8.6129798   8.6395141
   8.5623537   8.6008685   8.5804548   8.5917209   8.5914235   8.6676619
   8.6205312   8.5414423   8.6108216   8.6014553   8.6337847   8.5315596
   8.3910907   8.7012004   8.7929258   8.7973148   8.6881866   8.6645988
   8.6931101   8.7704387  13.4396160  13.7226977  14.0357157  14.0766643
  14.0006497  14.0145848  13.9957153  13.9937369  13.6816043  13.5512810
  14.0417963  13.9701864  14.0222224  14.0547415  13.9842554  13.9897804
  13.8047727  13.7368955  14.0988758  13.8808911  13.9864974  14.0313718
  13.9690715  13.9834782  13.6567527  13.5829448  14.0413247  14.0334992
  14.0387165  13.9837490  13.9690105  14.0014656  14.0021154  14.0016914
  13.9849884  13.9946848  13.9983734  14.0213819  13.9855620  13.9977241
  14.0278821  13.9951399  14.0977967  14.0632566  13.2701920  13.7216488
  14.0042258  14.0443231  13.9039910  13.9988507  13.6672511  13.7521317
  14.0482980  13.9774594  14.0603036  14.0323771  13.3898824  14.0423920
  14.0228625  14.0158942  13.9601850  13.9873843  14.0304428  12.9418206
  12.6441433  12.7555917  13.3100370  12.7580284  12.7597255  13.2485553
  12.8675054  13.0245787  12.6703642  12.8776743  12.8272373  12.7094946
  13.1753827  13.1964750  12.8930033  12.6299370  12.7783919  12.9494094
  12.6405444  13.2234648  12.7187242  13.3475169  12.6482452  12.7721569
  12.8890943  12.8748683  12.6539466  12.7636777
 SUMMED SPIN DENSITY           0.00000000
 TOTAL ATOMIC SPINS  :
  -0.0000451   0.0002904  -0.0000439  -0.0052218  -0.0003454   0.0003488
  -0.0001980   0.0000203  -0.0000164  -0.0000294   0.0003360  -0.0150383
  -0.0000202  -0.0001027  -0.0000091   0.0000731  -0.0000725  -0.0005138
  -0.0005539  -0.0000094  -0.0020855  -0.0001213  -0.0001758  -0.0050848
  -0.0269932  -0.0000709  -0.0000259  -0.0001124  -0.0016592  -0.0003916
   0.0001470   0.0050011  -0.0004442   0.0000153  -0.0044114  -0.0000890
  -0.0009895   0.0001014  -0.0000037  -0.0000650   0.0008157   0.0122141
  -0.0004945  -0.0005558  -0.0000891   0.0000140  -0.0016239   0.0002953
  -0.0000294  -0.0000464   0.0000148  -0.0000082   0.0002888  -0.0000375
   0.0008649  -0.0001090  -0.0003091   0.0000303  -0.0001123   0.0006559
   0.0000097  -0.0013627   0.0001166  -0.0000018   0.0000471  -0.0001635
  -0.0001541  -0.0000355  -0.0002075  -0.0003558   0.0001598   0.0000065
  -0.0008119  -0.0000044   0.0001886   0.0092540   0.0032556  -0.0091870
  -0.0004610   0.0394406   0.0171331   0.0030885   0.0058469   0.0078458
  -0.0013380   0.0076487  -0.0011731   0.0010422  -0.0012250  -0.0003241
   0.6965198  -0.0047420  -0.0041266  -0.0017353   0.0023360  -0.0039433
  -0.0036498   0.0001491  -0.0028837   0.0123386   0.0284808   0.0033174
   0.0179311   0.0016218   0.0455672   0.0070545   0.0081089  -0.0018565
  -0.0003923  -0.0132728  -0.0021789  -0.0088777   0.0150405  -0.0016439
  -0.0034196   0.0004462   0.0005305   0.0004960  -0.0000195  -0.0018318
  -0.0014671  -0.0020893  -0.0014757   0.0020021  -0.0023159  -0.0016304
  -0.0019276   0.0038413   0.0008380   0.0014513  -0.0114085  -0.0343145
   0.0004924   0.0021997  -0.0148227   0.0025017  -0.1099879   0.0006735
   0.0018503  -0.0000581  -0.0906672   0.0000009  -0.0052556  -0.5660871
  -0.0014726   0.0002446  -0.0037237   0.0001882  -0.0001926   0.0158483
   0.0032539  -0.0008835  -0.0005954   0.0000488   0.0038427   0.0002648
  -0.0014191   0.0003190   0.0005418  -0.0003770   0.0000311  -0.0000328
  -0.0001426  -0.0062819   0.0011842   0.0001988
 TTTTTTTTTTTTTTTTTTTTTTTTTTTTTT MOQGAD      TELAPSE    33041.64 TCPU    31717.09
 WARNING **** GENBUD **** COUL. BIPO BUFFER TOO SMALL - TO AVOID I/O SET BIPOSIZE =     2257900
 TTTTTTTTTTTTTTTTTTTTTTTTTTTTTT SHELLX      TELAPSE    33139.57 TCPU    31814.86
 +++ ENERGIES IN A.U. +++
 ::: EXT EL-POLE                                  -4.3934301611974E+04
 ::: EXT EL-SPHEROPOLE                             3.1693650276404E+02
 ::: BIELET ZONE E-E                               5.3323480868945E+04
 ::: TOTAL E-E                                     9.7061157597350E+03
 ::: TOTAL E-N + N-E                              -6.3919131728398E+04
 ::: TOTAL N-N                                    -5.0976085774863E+03
 ::: KINETIC ENERGY                                3.0750469997471E+04
 ::: PSEUDO TOTAL   ENERGY                        -2.8560154548679E+04
 ::: VIRIAL COEFFICIENT                            1.0369295630514E+00
 TTTTTTTTTTTTTTTTTTTTTTTTTTTTTT MONMO3      TELAPSE    33144.94 TCPU    31820.19
 NUMERICALLY INTEGRATED DENSITY    877.0000760577    877.0000727966
 TTTTTTTTTTTTTTTTTTTTTTTTTTTTTT NUMDFT      TELAPSE    33151.46 TCPU    31826.71
 CYC 150 ETOT(AU) -3.085521283235E+04 DETOT -4.68E-06 tst  1.06E-08 PX  1.81E-03

 == SCF ENDED - TOO MANY CYCLES            E(AU) -3.0855212832351E+04 CYCLES 150


 ENERGY EXPRESSION=HARTREE+FOCK EXCH*0.05000+(BECKE  EXCH)*0.95000+LYP    CORR

 FINITE TEMPERATURE DFT CALCULATION 
 TEMPERATURE      (T)    1.000000000000E-13 HARTREE 
 ENERGY           (E)   -3.085521283235E+04
 FREE ENERGY      (F)   -3.085521283235E+04
 ELECTRON ENTROPY (S)    0.000000000000E+00
 (E(T)+F(T))/2    (E0)  -3.085521283235E+04


 TOTAL ENERGY(DFT)(AU)(150) -3.0855212832351E+04 DE-4.7E-06 tester 1.1E-08
 TTTTTTTTTTTTTTTTTTTTTTTTTTTTTT EDFT        TELAPSE    33151.92 TCPU    31827.13
 EIGENVECTORS IN FORTRAN UNIT  8
 TTTTTTTTTTTTTTTTTTTTTTTTTTTTTT END         TELAPSE    33199.10 TCPU    31873.87
 EEEEEEEEEE TERMINATION  DATE 02 09 2014 TIME 04:46:11.8
NODE    0 CPU TIME =     31873.868
    TOTAL CPU TIME =   6113112.602
