--------------------------------------------------------------------------
WARNING: Open MPI will create a shared memory backing file in a
directory that appears to be mounted on a network filesystem.
Creating the shared memory backup file on a network file system, such
as NFS or Lustre is not recommended -- it may cause excessive network
traffic to your file servers and/or cause shared memory traffic in
Open MPI to be much slower than expected.

You may want to check what the typical temporary directory is on your
node.  Possible sources of the location of this temporary directory
include the $TEMPDIR, $TEMP, and $TMP environment variables.

Note, too, that system administrators can set a list of filesystems
where Open MPI is disallowed from creating temporary files by settings
the MCA parameter "orte_no_session_dir".

  Local host: r1i4n14
  Fileame:    /ichec/work/scratch/tmp/268623.service1.cb3.ichec.ie/openmpi-sessions-emehes@r1i4n14_0/46791/1/shared_mem_pool.r1i4n14

You can set the MCA paramter shmem_mmap_enable_nfs_warning to 0 to
disable this message.
--------------------------------------------------------------------------
--------------------------------------------------------------------------
WARNING: It appears that your OpenFabrics subsystem is configured to only
allow registering part of your physical memory.  This can cause MPI jobs to
run with erratic performance, hang, and/or crash.

This may be caused by your OpenFabrics vendor limiting the amount of
physical memory that can be registered.  You should investigate the
relevant Linux kernel module parameters that control how much physical
memory can be registered, and increase them to allow registering all
physical memory on your machine.

See this Open MPI FAQ item for more information on these Linux kernel module
parameters:

    http://www.open-mpi.org/faq/?category=openfabrics#ib-locked-pages

  Local host:              r2i7n6
  Registerable memory:     32768 MiB
  Total memory:            65506 MiB

Your MPI job will continue, but may be behave poorly and/or hang.
--------------------------------------------------------------------------
         192 PROCESSORS WORKING

         
 *******************************************************************************
 *                                                                             *
 *                                CRYSTAL09                                    *
 *                              public : 2.0                                   *
 *                      December 10th, 2012 - parallel executable              *
 *                                                                             *
 *                                                                             *
 *                                                                             *
 *                              MAIN AUTHORS                                   *
 *                                                                             *
 *    R. DOVESI(1,10), V.R. SAUNDERS(2), C. ROETTI(1,10), R. ORLANDO (1,3),    *
 *  C.M. ZICOVICH-WILSON(1,4), F. PASCALE(5), B. CIVALLERI(1,10), K. DOLL(6),  *
 *       N.M. HARRISON(2,7), I. J. BUSH(2), Ph. D'ARCO(8), M. LLUNELL(9)       *
 *                                                                             *
 * (1) THEORETICAL CHEMISTRY GROUP - UNIVERSITA' DI TORINO - TORINO (ITALY)    *
 *      http://www.crystal.unito.it                                            *
 * (2) COMPUTATIONAL SCIENCE & ENGINEERING DEPARTMENT - STFC DARESBURY LABORATO*Y (UK)
 *     http://www.cse.stfc.ac.uk/cmg/CRYSTAL/                                  *
 * (3) UNIVERSITA' DEL PIEMONTE ORIENTALE - ALESSANDRIA (ITALY)                *
 * (4) UNIVERSIDAD AUTONOMA DEL ESTADO DE MORELOS - CUERNAVACA (MEXICO)        *
 * (5) UNIVERSITE' HENRI POINCARE' - NANCY (FRANCE)                            *
 * (6) MPI FUER FESTKOERPERFORSCHUNG - STUTTGART (GERMANY)                     *
 * (7) IMPERIAL COLLEGE - LONDON (UK)                                          *
 * (8) UNIVERSITE' PIERRE ET MARIE CURIE - PARIS (FRANCE)                      *
 * (9) UNIVERSIDAD DE BARCELONA - BARCELONA (SPAIN)                            *
 *(10) NIS - NANOSTRUCTURED INTERFACES AND SURFACES - TORINO (ITALY)           *
 *     http://www.crystal.unito.it                                             *
 *******************************************************************************
 EEEEEEEEEE STARTING  DATE 01 09 2014 TIME 19:44:54.8
 Created with astools                                                            

 CRYSTAL CALCULATION
 (INPUT ACCORDING TO THE INTERNATIONAL TABLES FOR X-RAY CRYSTALLOGRAPHY)
 CRYSTAL FAMILY                       :  TRICLINIC   
 CRYSTAL CLASS  (GROTH - 1921)        :  TRICLINIC PEDIAL                     

 SPACE GROUP (NONCENTROSYMMETRIC)     :  P 1             

 LATTICE PARAMETERS  (ANGSTROMS AND DEGREES) - CONVENTIONAL CELL
        A           B           C        ALPHA        BETA       GAMMA
    10.87570    10.77870    21.18660    90.00000    90.00000    90.00000


 NUMBER OF IRREDUCIBLE ATOMS IN THE CONVENTIONAL CELL:  161

 INPUT COORDINATES

 ATOM AT. N.              COORDINATES
   1   1     2.401130000000E-01  2.445550000000E-01  9.570860000000E-01
   2   1     4.510780000000E-01  5.996040000000E-01  6.757500000000E-02
   3   1     5.515080000000E-01  1.607800000000E-02  9.671370000000E-01
   4   1     5.295800000000E-02  5.614060000000E-01  5.019480000000E-01
   5   1     7.477790000000E-01  8.717160000000E-01  5.952790000000E-01
   6   1     5.224560000000E-01  4.663530000000E-01  6.135210000000E-01
   7   1     4.191780000000E-01  1.040530000000E+00  8.717520000000E-01
   8   1     5.717400000000E-01  6.522950000000E-01  8.950000000000E-01
   9   1     9.307050000000E-01  6.809710000000E-01  8.853200000000E-01
  10   1     7.141850000000E-01  5.937660000000E-01  8.391650000000E-01
  11   1     6.568750000000E-01  1.933450000000E-01  7.220810000000E-01
  12   1     4.645610000000E-01  7.220480000000E-01  7.103450000000E-01
  13   1     3.503740000000E-01  7.172550000000E-01  7.944550000000E-01
  14   8     5.480240000000E-01  8.868220000000E-01  6.326670000000E-01
  15   8     3.553860000000E-01  3.301710000000E-01  6.201150000000E-01
  16   8     7.992030000000E-01  2.517230000000E-01  5.597780000000E-01
  17   8     3.456320000000E-01  5.692640000000E-01  5.838070000000E-01
  18   8     6.756780000000E-01  1.868280000000E-01  6.773850000000E-01
  19   8     8.507880000000E-01  6.764080000000E-01  5.748260000000E-01
  20   8     6.405790000000E-01  5.690530000000E-01  6.415580000000E-01
  21   8     2.390430000000E-01  9.925160000000E-01  5.993190000000E-01
  22   8     1.073780000000E-01  3.605250000000E-01  6.419860000000E-01
  23   8     6.490920000000E-01  6.702400000000E-02  5.501790000000E-01
  24   8     9.153200000000E-01  9.882780000000E-01  5.328670000000E-01
  25   8     6.040060000000E-01  3.378590000000E-01  5.543230000000E-01
  26   8     3.069900000000E-01  7.721880000000E-01  6.494860000000E-01
  27   8     1.110900000000E-01  6.310600000000E-01  5.966000000000E-01
  28   8     9.872080000000E-01  8.120480000000E-01  6.463440000000E-01
  29   8     2.217010000000E-01  7.628500000000E-01  5.242340000000E-01
  30   8     4.991600000000E-02  3.211460000000E-01  9.178090000000E-01
  31   8     2.701350000000E-01  3.754630000000E-01  7.376100000000E-01
  32   8     1.615640000000E-01  4.860720000000E-01  8.451540000000E-01
  33   8     5.001030000000E-01  2.092990000000E-01  8.033970000000E-01
  34   8     6.565530000000E-01  9.661000000000E-02  8.775630000000E-01
  35   8     7.957630000000E-01  4.361550000000E-01  7.235470000000E-01
  36   8     3.841170000000E-01  8.173040000000E-01  9.780930000000E-01
  37   8     8.322040000000E-01  8.345280000000E-01  9.596640000000E-01
  38   8     5.378430000000E-01  5.862840000000E-01  9.236950000000E-01
  39   8     1.944890000000E-01  6.079960000000E-01  7.346470000000E-01
  40   8     6.876760000000E-01  6.558820000000E-01  7.493600000000E-01
  41   8     5.260580000000E-01  8.556730000000E-01  8.761810000000E-01
  42   8     9.693710000000E-01  3.390100000000E-02  7.273000000000E-01
  43   8     4.690700000000E-02  7.713900000000E-01  7.660830000000E-01
  44   8     5.980190000000E-01  8.735640000000E-01  7.553640000000E-01
  45   8     8.341500000000E-01  8.582060000000E-01  7.292890000000E-01
  46   8     8.987360000000E-01  1.158630000000E-01  9.067050000000E-01
  47   8     3.473500000000E-02  4.139340000000E-01  7.573880000000E-01
  48   8     8.194200000000E-01  1.969660000000E-01  8.035090000000E-01
  49   8     3.390980000000E-01  6.592050000000E-01  8.883600000000E-01
  50   8     9.411350000000E-01  5.489070000000E-01  6.627970000000E-01
  51   8     7.594550000000E-01  5.199340000000E-01  9.457350000000E-01
  52   8     5.965100000000E-02  1.730730000000E-01  8.185870000000E-01
  53   8     7.642560000000E-01  2.796710000000E-01  9.423530000000E-01
  54   8     4.813040000000E-01  2.408220000000E-01  9.326900000000E-01
  55   8     3.910880000000E-01  9.746430000000E-01  7.088440000000E-01
  56   8     5.610320000000E-01  4.360950000000E-01  7.408150000000E-01
  57   8     1.139560000000E-01  9.447000000000E-02  9.499460000000E-01
  58   8     3.050630000000E-01  7.939520000000E-01  7.893770000000E-01
  59   8     3.485840000000E-01  4.530190000000E-01  9.671170000000E-01
  60   8     6.659740000000E-01  3.717130000000E-01  8.476420000000E-01
  61   8     7.645670000000E-01  8.070940000000E-01  8.435750000000E-01
  62   8     9.047120000000E-01  4.581840000000E-01  8.542930000000E-01
  63   8     6.446840000000E-01  6.986860000000E-01  9.337000000000E-03
  64   8     4.243660000000E-01  4.425160000000E-01  8.408040000000E-01
  65   8     4.587100000000E-02  5.554470000000E-01  9.467640000000E-01
  66   8    -1.193000000000E-03  9.075340000000E-01  8.742070000000E-01
  67   8     1.609900000000E-01  9.140910000000E-01  7.110990000000E-01
  68   8     9.130440000000E-01  2.421550000000E-01  6.917570000000E-01
  69   8     2.280420000000E-01  1.556360000000E-01  6.880350000000E-01
  70  14     5.087600000000E-02  3.959200000000E-02  1.478100000000E-02
  71  14     2.981730000000E-01  3.192830000000E-01  5.892000000000E-03
  72  14     1.606620000000E-01  4.220230000000E-01  7.450000000000E-02
  73  14     4.098910000000E-01  1.807450000000E-01  7.219400000000E-02
  74  14     3.756700000000E-02  2.945180000000E-01  1.406410000000E-01
  75  14     2.887440000000E-01  4.861500000000E-02  1.387820000000E-01
  76  14     1.641290000000E-01  1.692340000000E-01  2.074580000000E-01
  77  14     4.097420000000E-01  4.158230000000E-01  2.132320000000E-01
  78  14     7.552900000000E-02  5.941660000000E-01  1.951900000000E-02
  79  14     2.690570000000E-01  7.548810000000E-01  2.178700000000E-02
  80  14     1.680310000000E-01  9.081090000000E-01  7.915900000000E-02
  81  14     3.751820000000E-01  6.913510000000E-01  1.080450000000E-01
  82  14     3.306500000000E-02  7.942620000000E-01  1.478080000000E-01
  83  14     2.726910000000E-01  5.302200000000E-01  1.524900000000E-01
  84  14     1.497110000000E-01  6.613310000000E-01  2.143070000000E-01
  85  14     4.089450000000E-01  9.243130000000E-01  2.094260000000E-01
  86  14     5.796010000000E-01  9.557800000000E-02  2.264100000000E-02
  87  14     7.442570000000E-01  2.455570000000E-01  1.871300000000E-02
  88  14     6.614070000000E-01  4.181280000000E-01  7.433100000000E-02
  89  14     9.139030000000E-01  1.620820000000E-01  7.602300000000E-02
  90  14     5.306570000000E-01  2.981620000000E-01  1.425520000000E-01
  91  14     7.929100000000E-01  4.181000000000E-02  1.469650000000E-01
  92  14     6.616170000000E-01  1.692270000000E-01  2.075340000000E-01
  93  14     9.134620000000E-01  4.170290000000E-01  2.097460000000E-01
  94  14     6.359820000000E-01  5.579810000000E-01  9.835550000000E-01
  95  14     7.644780000000E-01  7.895230000000E-01  2.494900000000E-02
  96  14     6.561010000000E-01  9.326350000000E-01  8.328600000000E-02
  97  14     9.085650000000E-01  6.731740000000E-01  8.200300000000E-02
  98  14     5.402500000000E-01  7.977870000000E-01  1.493800000000E-01
  99  14     7.863490000000E-01  5.397730000000E-01  1.446230000000E-01
 100  14     6.609630000000E-01  6.631640000000E-01  2.129480000000E-01
 101  14     9.114030000000E-01  9.176460000000E-01  2.149060000000E-01
 102  14     4.092200000000E-02  4.564700000000E-02  2.757170000000E-01
 103  14     2.873710000000E-01  2.919760000000E-01  2.773400000000E-01
 104  14     2.855000000000E-02  5.378950000000E-01  2.833620000000E-01
 105  14     2.841280000000E-01  7.902060000000E-01  2.705730000000E-01
 106  14     5.386550000000E-01  4.233200000000E-02  2.763630000000E-01
 107  14     7.878890000000E-01  2.916390000000E-01  2.727920000000E-01
 108  14     5.352430000000E-01  5.371730000000E-01  2.798680000000E-01
 109  14     7.829610000000E-01  7.910120000000E-01  2.784310000000E-01
 110  14     1.610270000000E-01  4.096680000000E-01  3.464390000000E-01
 111  14     4.189990000000E-01  1.718370000000E-01  3.413350000000E-01
 112  14     3.065600000000E-02  2.927330000000E-01  4.140630000000E-01
 113  14     2.967850000000E-01  3.798400000000E-02  3.981870000000E-01
 114  14     1.254970000000E-01  1.019550000000E-01  4.571370000000E-01
 115  14     4.501570000000E-01  4.544380000000E-01  4.621950000000E-01
 116  14     1.643900000000E-01  9.114620000000E-01  3.375470000000E-01
 117  14     4.082470000000E-01  6.721160000000E-01  3.396320000000E-01
 118  14     2.863900000000E-02  7.991260000000E-01  4.049060000000E-01
 119  14     2.857820000000E-01  5.478970000000E-01  4.059900000000E-01
 120  14     1.357040000000E-01  6.565250000000E-01  4.662680000000E-01
 121  14     4.252730000000E-01  9.417500000000E-01  4.737110000000E-01
 122  14     6.651320000000E-01  4.055430000000E-01  3.440530000000E-01
 123  14     9.118520000000E-01  1.715000000000E-01  3.398850000000E-01
 124  14     5.476650000000E-01  2.794230000000E-01  4.165940000000E-01
 125  14     7.761350000000E-01  6.257100000000E-02  4.060100000000E-01
 126  14     6.638250000000E-01  2.044920000000E-01  5.117910000000E-01
 127  14     9.428030000000E-01  4.537440000000E-01  4.795830000000E-01
 128  14     6.590690000000E-01  9.152290000000E-01  3.461030000000E-01
 129  14     8.997090000000E-01  6.662690000000E-01  3.461770000000E-01
 130  14     5.281950000000E-01  7.878280000000E-01  4.129330000000E-01
 131  14     7.845030000000E-01  5.321770000000E-01  4.117570000000E-01
 132  14     6.130230000000E-01  6.157230000000E-01  4.716650000000E-01
 133  14     9.471080000000E-01  9.774790000000E-01  4.554770000000E-01
 134  14     8.010320000000E-01  1.631010000000E-01  6.448460000000E-01
 135  14     2.326830000000E-01  3.054840000000E-01  6.698820000000E-01
 136  14     2.361130000000E-01  9.431480000000E-01  5.263470000000E-01
 137  14     7.059470000000E-01  6.306800000000E-01  5.768950000000E-01
 138  14     2.514520000000E-01  6.867640000000E-01  5.957600000000E-01
 139  14     9.740920000000E-01  6.695200000000E-01  6.214500000000E-01
 140  14     7.472270000000E-01  4.111600000000E-01  5.420030000000E-01
 141  14     4.956460000000E-01  1.010689000000E+00  5.909310000000E-01
 142  14     7.933650000000E-01  9.944070000000E-01  5.775070000000E-01
 143  14     4.177710000000E-01  4.370680000000E-01  5.757590000000E-01
 144  14     6.753870000000E-01  5.235010000000E-01  7.141220000000E-01
 145  14     3.853600000000E-02  4.589440000000E-01  8.887810000000E-01
 146  14     4.883520000000E-01  8.550100000000E-01  7.037160000000E-01
 147  14     5.076520000000E-01  1.428990000000E-01  8.774240000000E-01
 148  14     4.127630000000E-01  7.913650000000E-01  9.049260000000E-01
 149  14     7.234240000000E-01  7.988850000000E-01  7.708980000000E-01
 150  14     1.715650000000E-01  4.736610000000E-01  7.671780000000E-01
 151  14     7.745360000000E-01  1.828060000000E-01  8.805820000000E-01
 152  14     3.427600000000E-02  1.737920000000E-01  8.961800000000E-01
 153  14     9.479360000000E-01  4.118030000000E-01  6.950730000000E-01
 154  14     9.463540000000E-01  1.570980000000E-01  7.676170000000E-01
 155  14     5.342870000000E-01  3.590430000000E-01  8.063380000000E-01
 156  14     3.916890000000E-01  5.184880000000E-01  9.032320000000E-01
 157  14     2.595710000000E-01  1.010607000000E+00  6.763150000000E-01
 158  14     1.913110000000E-01  7.634460000000E-01  7.400030000000E-01
 159  14     9.819750000000E-01  8.771920000000E-01  7.199930000000E-01
 160  14     8.930900000000E-01  8.120100000000E-01  8.875610000000E-01
 161  14     7.618940000000E-01  4.845600000000E-01  8.701660000000E-01

 *******************************************************************************

 << INFORMATION >>: FROM NOW ON, ALL COORDINATES REFER TO THE PRIMITIVE CELL

 *******************************************************************************

 LATTICE PARAMETERS  (ANGSTROMS AND DEGREES) - PRIMITIVE CELL
       A          B          C         ALPHA     BETA     GAMMA        VOLUME
   10.87570   10.77870   21.18660    90.00000  90.00000  90.00000   2483.618414

 COORDINATES OF THE EQUIVALENT ATOMS (FRACTIONAL UNITS)

 N. ATOM EQUIV AT. N.          X                  Y                  Z

   1   1   1    1 H     2.40113000000E-01  2.44555000000E-01 -4.29140000000E-02

   2   2   1    1 H     4.51078000000E-01 -4.00396000000E-01  6.75750000000E-02

   3   3   1    1 H    -4.48492000000E-01  1.60780000000E-02 -3.28630000000E-02

   4   4   1    1 H     5.29580000000E-02 -4.38594000000E-01 -4.98052000000E-01

   5   5   1    1 H    -2.52221000000E-01 -1.28284000000E-01 -4.04721000000E-01

   6   6   1    1 H    -4.77544000000E-01  4.66353000000E-01 -3.86479000000E-01

   7   7   1    1 H     4.19178000000E-01  4.05300000000E-02 -1.28248000000E-01

   8   8   1    1 H    -4.28260000000E-01 -3.47705000000E-01 -1.05000000000E-01

   9   9   1    1 H    -6.92950000000E-02 -3.19029000000E-01 -1.14680000000E-01

  10  10   1    1 H    -2.85815000000E-01 -4.06234000000E-01 -1.60835000000E-01

  11  11   1    1 H    -3.43125000000E-01  1.93345000000E-01 -2.77919000000E-01

  12  12   1    1 H     4.64561000000E-01 -2.77952000000E-01 -2.89655000000E-01

  13  13   1    1 H     3.50374000000E-01 -2.82745000000E-01 -2.05545000000E-01

  14  14   1    8 O    -4.51976000000E-01 -1.13178000000E-01 -3.67333000000E-01

  15  15   1    8 O     3.55386000000E-01  3.30171000000E-01 -3.79885000000E-01

  16  16   1    8 O    -2.00797000000E-01  2.51723000000E-01 -4.40222000000E-01

  17  17   1    8 O     3.45632000000E-01 -4.30736000000E-01 -4.16193000000E-01

  18  18   1    8 O    -3.24322000000E-01  1.86828000000E-01 -3.22615000000E-01

  19  19   1    8 O    -1.49212000000E-01 -3.23592000000E-01 -4.25174000000E-01

  20  20   1    8 O    -3.59421000000E-01 -4.30947000000E-01 -3.58442000000E-01

  21  21   1    8 O     2.39043000000E-01 -7.48400000000E-03 -4.00681000000E-01

  22  22   1    8 O     1.07378000000E-01  3.60525000000E-01 -3.58014000000E-01

  23  23   1    8 O    -3.50908000000E-01  6.70240000000E-02 -4.49821000000E-01

  24  24   1    8 O    -8.46800000000E-02 -1.17220000000E-02 -4.67133000000E-01

  25  25   1    8 O    -3.95994000000E-01  3.37859000000E-01 -4.45677000000E-01

  26  26   1    8 O     3.06990000000E-01 -2.27812000000E-01 -3.50514000000E-01

  27  27   1    8 O     1.11090000000E-01 -3.68940000000E-01 -4.03400000000E-01

  28  28   1    8 O    -1.27920000000E-02 -1.87952000000E-01 -3.53656000000E-01

  29  29   1    8 O     2.21701000000E-01 -2.37150000000E-01 -4.75766000000E-01

  30  30   1    8 O     4.99160000000E-02  3.21146000000E-01 -8.21910000000E-02

  31  31   1    8 O     2.70135000000E-01  3.75463000000E-01 -2.62390000000E-01

  32  32   1    8 O     1.61564000000E-01  4.86072000000E-01 -1.54846000000E-01

  33  33   1    8 O    -4.99897000000E-01  2.09299000000E-01 -1.96603000000E-01

  34  34   1    8 O    -3.43447000000E-01  9.66100000000E-02 -1.22437000000E-01

  35  35   1    8 O    -2.04237000000E-01  4.36155000000E-01 -2.76453000000E-01

  36  36   1    8 O     3.84117000000E-01 -1.82696000000E-01 -2.19070000000E-02

  37  37   1    8 O    -1.67796000000E-01 -1.65472000000E-01 -4.03360000000E-02

  38  38   1    8 O    -4.62157000000E-01 -4.13716000000E-01 -7.63050000000E-02

  39  39   1    8 O     1.94489000000E-01 -3.92004000000E-01 -2.65353000000E-01

  40  40   1    8 O    -3.12324000000E-01 -3.44118000000E-01 -2.50640000000E-01

  41  41   1    8 O    -4.73942000000E-01 -1.44327000000E-01 -1.23819000000E-01

  42  42   1    8 O    -3.06290000000E-02  3.39010000000E-02 -2.72700000000E-01

  43  43   1    8 O     4.69070000000E-02 -2.28610000000E-01 -2.33917000000E-01

  44  44   1    8 O    -4.01981000000E-01 -1.26436000000E-01 -2.44636000000E-01

  45  45   1    8 O    -1.65850000000E-01 -1.41794000000E-01 -2.70711000000E-01

  46  46   1    8 O    -1.01264000000E-01  1.15863000000E-01 -9.32950000000E-02

  47  47   1    8 O     3.47350000000E-02  4.13934000000E-01 -2.42612000000E-01

  48  48   1    8 O    -1.80580000000E-01  1.96966000000E-01 -1.96491000000E-01

  49  49   1    8 O     3.39098000000E-01 -3.40795000000E-01 -1.11640000000E-01

  50  50   1    8 O    -5.88650000000E-02 -4.51093000000E-01 -3.37203000000E-01

  51  51   1    8 O    -2.40545000000E-01 -4.80066000000E-01 -5.42650000000E-02

  52  52   1    8 O     5.96510000000E-02  1.73073000000E-01 -1.81413000000E-01

  53  53   1    8 O    -2.35744000000E-01  2.79671000000E-01 -5.76470000000E-02

  54  54   1    8 O     4.81304000000E-01  2.40822000000E-01 -6.73100000000E-02

  55  55   1    8 O     3.91088000000E-01 -2.53570000000E-02 -2.91156000000E-01

  56  56   1    8 O    -4.38968000000E-01  4.36095000000E-01 -2.59185000000E-01

  57  57   1    8 O     1.13956000000E-01  9.44700000000E-02 -5.00540000000E-02

  58  58   1    8 O     3.05063000000E-01 -2.06048000000E-01 -2.10623000000E-01

  59  59   1    8 O     3.48584000000E-01  4.53019000000E-01 -3.28830000000E-02

  60  60   1    8 O    -3.34026000000E-01  3.71713000000E-01 -1.52358000000E-01

  61  61   1    8 O    -2.35433000000E-01 -1.92906000000E-01 -1.56425000000E-01

  62  62   1    8 O    -9.52880000000E-02  4.58184000000E-01 -1.45707000000E-01

  63  63   1    8 O    -3.55316000000E-01 -3.01314000000E-01  9.33700000000E-03

  64  64   1    8 O     4.24366000000E-01  4.42516000000E-01 -1.59196000000E-01

  65  65   1    8 O     4.58710000000E-02 -4.44553000000E-01 -5.32360000000E-02

  66  66   1    8 O    -1.19300000000E-03 -9.24660000000E-02 -1.25793000000E-01

  67  67   1    8 O     1.60990000000E-01 -8.59090000000E-02 -2.88901000000E-01

  68  68   1    8 O    -8.69560000000E-02  2.42155000000E-01 -3.08243000000E-01

  69  69   1    8 O     2.28042000000E-01  1.55636000000E-01 -3.11965000000E-01

  70  70   1   14 SI    5.08760000000E-02  3.95920000000E-02  1.47810000000E-02

  71  71   1   14 SI    2.98173000000E-01  3.19283000000E-01  5.89200000000E-03

  72  72   1   14 SI    1.60662000000E-01  4.22023000000E-01  7.45000000000E-02

  73  73   1   14 SI    4.09891000000E-01  1.80745000000E-01  7.21940000000E-02

  74  74   1   14 SI    3.75670000000E-02  2.94518000000E-01  1.40641000000E-01

  75  75   1   14 SI    2.88744000000E-01  4.86150000000E-02  1.38782000000E-01

  76  76   1   14 SI    1.64129000000E-01  1.69234000000E-01  2.07458000000E-01

  77  77   1   14 SI    4.09742000000E-01  4.15823000000E-01  2.13232000000E-01

  78  78   1   14 SI    7.55290000000E-02 -4.05834000000E-01  1.95190000000E-02

  79  79   1   14 SI    2.69057000000E-01 -2.45119000000E-01  2.17870000000E-02

  80  80   1   14 SI    1.68031000000E-01 -9.18910000000E-02  7.91590000000E-02

  81  81   1   14 SI    3.75182000000E-01 -3.08649000000E-01  1.08045000000E-01

  82  82   1   14 SI    3.30650000000E-02 -2.05738000000E-01  1.47808000000E-01

  83  83   1   14 SI    2.72691000000E-01 -4.69780000000E-01  1.52490000000E-01

  84  84   1   14 SI    1.49711000000E-01 -3.38669000000E-01  2.14307000000E-01

  85  85   1   14 SI    4.08945000000E-01 -7.56870000000E-02  2.09426000000E-01

  86  86   1   14 SI   -4.20399000000E-01  9.55780000000E-02  2.26410000000E-02

  87  87   1   14 SI   -2.55743000000E-01  2.45557000000E-01  1.87130000000E-02

  88  88   1   14 SI   -3.38593000000E-01  4.18128000000E-01  7.43310000000E-02

  89  89   1   14 SI   -8.60970000000E-02  1.62082000000E-01  7.60230000000E-02

  90  90   1   14 SI   -4.69343000000E-01  2.98162000000E-01  1.42552000000E-01

  91  91   1   14 SI   -2.07090000000E-01  4.18100000000E-02  1.46965000000E-01

  92  92   1   14 SI   -3.38383000000E-01  1.69227000000E-01  2.07534000000E-01

  93  93   1   14 SI   -8.65380000000E-02  4.17029000000E-01  2.09746000000E-01

  94  94   1   14 SI   -3.64018000000E-01 -4.42019000000E-01 -1.64450000000E-02

  95  95   1   14 SI   -2.35522000000E-01 -2.10477000000E-01  2.49490000000E-02

  96  96   1   14 SI   -3.43899000000E-01 -6.73650000000E-02  8.32860000000E-02

  97  97   1   14 SI   -9.14350000000E-02 -3.26826000000E-01  8.20030000000E-02

  98  98   1   14 SI   -4.59750000000E-01 -2.02213000000E-01  1.49380000000E-01

  99  99   1   14 SI   -2.13651000000E-01 -4.60227000000E-01  1.44623000000E-01

 100 100   1   14 SI   -3.39037000000E-01 -3.36836000000E-01  2.12948000000E-01

 101 101   1   14 SI   -8.85970000000E-02 -8.23540000000E-02  2.14906000000E-01

 102 102   1   14 SI    4.09220000000E-02  4.56470000000E-02  2.75717000000E-01

 103 103   1   14 SI    2.87371000000E-01  2.91976000000E-01  2.77340000000E-01

 104 104   1   14 SI    2.85500000000E-02 -4.62105000000E-01  2.83362000000E-01

 105 105   1   14 SI    2.84128000000E-01 -2.09794000000E-01  2.70573000000E-01

 106 106   1   14 SI   -4.61345000000E-01  4.23320000000E-02  2.76363000000E-01

 107 107   1   14 SI   -2.12111000000E-01  2.91639000000E-01  2.72792000000E-01

 108 108   1   14 SI   -4.64757000000E-01 -4.62827000000E-01  2.79868000000E-01

 109 109   1   14 SI   -2.17039000000E-01 -2.08988000000E-01  2.78431000000E-01

 110 110   1   14 SI    1.61027000000E-01  4.09668000000E-01  3.46439000000E-01

 111 111   1   14 SI    4.18999000000E-01  1.71837000000E-01  3.41335000000E-01

 112 112   1   14 SI    3.06560000000E-02  2.92733000000E-01  4.14063000000E-01

 113 113   1   14 SI    2.96785000000E-01  3.79840000000E-02  3.98187000000E-01

 114 114   1   14 SI    1.25497000000E-01  1.01955000000E-01  4.57137000000E-01

 115 115   1   14 SI    4.50157000000E-01  4.54438000000E-01  4.62195000000E-01

 116 116   1   14 SI    1.64390000000E-01 -8.85380000000E-02  3.37547000000E-01

 117 117   1   14 SI    4.08247000000E-01 -3.27884000000E-01  3.39632000000E-01

 118 118   1   14 SI    2.86390000000E-02 -2.00874000000E-01  4.04906000000E-01

 119 119   1   14 SI    2.85782000000E-01 -4.52103000000E-01  4.05990000000E-01

 120 120   1   14 SI    1.35704000000E-01 -3.43475000000E-01  4.66268000000E-01

 121 121   1   14 SI    4.25273000000E-01 -5.82500000000E-02  4.73711000000E-01

 122 122   1   14 SI   -3.34868000000E-01  4.05543000000E-01  3.44053000000E-01

 123 123   1   14 SI   -8.81480000000E-02  1.71500000000E-01  3.39885000000E-01

 124 124   1   14 SI   -4.52335000000E-01  2.79423000000E-01  4.16594000000E-01

 125 125   1   14 SI   -2.23865000000E-01  6.25710000000E-02  4.06010000000E-01

 126 126   1   14 SI   -3.36175000000E-01  2.04492000000E-01 -4.88209000000E-01

 127 127   1   14 SI   -5.71970000000E-02  4.53744000000E-01  4.79583000000E-01

 128 128   1   14 SI   -3.40931000000E-01 -8.47710000000E-02  3.46103000000E-01

 129 129   1   14 SI   -1.00291000000E-01 -3.33731000000E-01  3.46177000000E-01

 130 130   1   14 SI   -4.71805000000E-01 -2.12172000000E-01  4.12933000000E-01

 131 131   1   14 SI   -2.15497000000E-01 -4.67823000000E-01  4.11757000000E-01

 132 132   1   14 SI   -3.86977000000E-01 -3.84277000000E-01  4.71665000000E-01

 133 133   1   14 SI   -5.28920000000E-02 -2.25210000000E-02  4.55477000000E-01

 134 134   1   14 SI   -1.98968000000E-01  1.63101000000E-01 -3.55154000000E-01

 135 135   1   14 SI    2.32683000000E-01  3.05484000000E-01 -3.30118000000E-01

 136 136   1   14 SI    2.36113000000E-01 -5.68520000000E-02 -4.73653000000E-01

 137 137   1   14 SI   -2.94053000000E-01 -3.69320000000E-01 -4.23105000000E-01

 138 138   1   14 SI    2.51452000000E-01 -3.13236000000E-01 -4.04240000000E-01

 139 139   1   14 SI   -2.59080000000E-02 -3.30480000000E-01 -3.78550000000E-01

 140 140   1   14 SI   -2.52773000000E-01  4.11160000000E-01 -4.57997000000E-01

 141 141   1   14 SI    4.95646000000E-01  1.06890000000E-02 -4.09069000000E-01

 142 142   1   14 SI   -2.06635000000E-01 -5.59300000000E-03 -4.22493000000E-01

 143 143   1   14 SI    4.17771000000E-01  4.37068000000E-01 -4.24241000000E-01

 144 144   1   14 SI   -3.24613000000E-01 -4.76499000000E-01 -2.85878000000E-01

 145 145   1   14 SI    3.85360000000E-02  4.58944000000E-01 -1.11219000000E-01

 146 146   1   14 SI    4.88352000000E-01 -1.44990000000E-01 -2.96284000000E-01

 147 147   1   14 SI   -4.92348000000E-01  1.42899000000E-01 -1.22576000000E-01

 148 148   1   14 SI    4.12763000000E-01 -2.08635000000E-01 -9.50740000000E-02

 149 149   1   14 SI   -2.76576000000E-01 -2.01115000000E-01 -2.29102000000E-01

 150 150   1   14 SI    1.71565000000E-01  4.73661000000E-01 -2.32822000000E-01

 151 151   1   14 SI   -2.25464000000E-01  1.82806000000E-01 -1.19418000000E-01

 152 152   1   14 SI    3.42760000000E-02  1.73792000000E-01 -1.03820000000E-01

 153 153   1   14 SI   -5.20640000000E-02  4.11803000000E-01 -3.04927000000E-01

 154 154   1   14 SI   -5.36460000000E-02  1.57098000000E-01 -2.32383000000E-01

 155 155   1   14 SI   -4.65713000000E-01  3.59043000000E-01 -1.93662000000E-01

 156 156   1   14 SI    3.91689000000E-01 -4.81512000000E-01 -9.67680000000E-02

 157 157   1   14 SI    2.59571000000E-01  1.06070000000E-02 -3.23685000000E-01

 158 158   1   14 SI    1.91311000000E-01 -2.36554000000E-01 -2.59997000000E-01

 159 159   1   14 SI   -1.80250000000E-02 -1.22808000000E-01 -2.80007000000E-01

 160 160   1   14 SI   -1.06910000000E-01 -1.87990000000E-01 -1.12439000000E-01

 161 161   1   14 SI   -2.38106000000E-01  4.84560000000E-01 -1.29834000000E-01

 NUMBER OF SYMMETRY OPERATORS         :    1
 *******************************************************************************
 * GEOMETRY EDITING - INPUT COORDINATES ARE GIVEN IN ANGSTROM         
 *******************************************************************************

 GCALCO - MAX INDICES DIRECT LATTICE VECTOR    18    19     9
 NO.OF VECTORS CREATED 6999 STARS 1059 RMAX   303.51649 BOHR

 GEOMETRY FOR WAVE FUNCTION - DIMENSIONALITY OF THE SYSTEM    3
 (NON PERIODIC DIRECTION: LATTICE PARAMETER FORMALLY SET TO 500)
 *******************************************************************************
 LATTICE PARAMETERS (ANGSTROMS AND DEGREES) - BOHR = 0.5291772083 ANGSTROM
 PRIMITIVE CELL - CENTRING CODE 1/0 VOLUME=  2483.618414 - DENSITY  2.329 g/cm^3
         A              B              C           ALPHA      BETA       GAMMA 
    10.87570000    10.77870000    21.18660000    90.000000  90.000000  90.000000
 *******************************************************************************
 ATOMS IN THE ASYMMETRIC UNIT  161 - ATOMS IN THE UNIT CELL:  161
     ATOM              X/A                 Y/B                 Z/C    
 *******************************************************************************
   1 T   1 H     2.401130000000E-01  2.445550000000E-01 -4.291400000000E-02
   2 T   1 H     4.510780000000E-01 -4.003960000000E-01  6.757500000000E-02
   3 T   1 H    -4.484920000000E-01  1.607800000000E-02 -3.286300000000E-02
   4 T   1 H     5.295800000000E-02 -4.385940000000E-01 -4.980520000000E-01
   5 T   1 H    -2.522210000000E-01 -1.282840000000E-01 -4.047210000000E-01
   6 T   1 H    -4.775440000000E-01  4.663530000000E-01 -3.864790000000E-01
   7 T   1 H     4.191780000000E-01  4.053000000000E-02 -1.282480000000E-01
   8 T   1 H    -4.282600000000E-01 -3.477050000000E-01 -1.050000000000E-01
   9 T   1 H    -6.929500000000E-02 -3.190290000000E-01 -1.146800000000E-01
  10 T   1 H    -2.858150000000E-01 -4.062340000000E-01 -1.608350000000E-01
  11 T   1 H    -3.431250000000E-01  1.933450000000E-01 -2.779190000000E-01
  12 T   1 H     4.645610000000E-01 -2.779520000000E-01 -2.896550000000E-01
  13 T   1 H     3.503740000000E-01 -2.827450000000E-01 -2.055450000000E-01
  14 T   8 O    -4.519760000000E-01 -1.131780000000E-01 -3.673330000000E-01
  15 T   8 O     3.553860000000E-01  3.301710000000E-01 -3.798850000000E-01
  16 T   8 O    -2.007970000000E-01  2.517230000000E-01 -4.402220000000E-01
  17 T   8 O     3.456320000000E-01 -4.307360000000E-01 -4.161930000000E-01
  18 T   8 O    -3.243220000000E-01  1.868280000000E-01 -3.226150000000E-01
  19 T   8 O    -1.492120000000E-01 -3.235920000000E-01 -4.251740000000E-01
  20 T   8 O    -3.594210000000E-01 -4.309470000000E-01 -3.584420000000E-01
  21 T   8 O     2.390430000000E-01 -7.484000000000E-03 -4.006810000000E-01
  22 T   8 O     1.073780000000E-01  3.605250000000E-01 -3.580140000000E-01
  23 T   8 O    -3.509080000000E-01  6.702400000000E-02 -4.498210000000E-01
  24 T   8 O    -8.468000000000E-02 -1.172200000000E-02 -4.671330000000E-01
  25 T   8 O    -3.959940000000E-01  3.378590000000E-01 -4.456770000000E-01
  26 T   8 O     3.069900000000E-01 -2.278120000000E-01 -3.505140000000E-01
  27 T   8 O     1.110900000000E-01 -3.689400000000E-01 -4.034000000000E-01
  28 T   8 O    -1.279200000000E-02 -1.879520000000E-01 -3.536560000000E-01
  29 T   8 O     2.217010000000E-01 -2.371500000000E-01 -4.757660000000E-01
  30 T   8 O     4.991600000000E-02  3.211460000000E-01 -8.219100000000E-02
  31 T   8 O     2.701350000000E-01  3.754630000000E-01 -2.623900000000E-01
  32 T   8 O     1.615640000000E-01  4.860720000000E-01 -1.548460000000E-01
  33 T   8 O    -4.998970000000E-01  2.092990000000E-01 -1.966030000000E-01
  34 T   8 O    -3.434470000000E-01  9.661000000000E-02 -1.224370000000E-01
  35 T   8 O    -2.042370000000E-01  4.361550000000E-01 -2.764530000000E-01
  36 T   8 O     3.841170000000E-01 -1.826960000000E-01 -2.190700000000E-02
  37 T   8 O    -1.677960000000E-01 -1.654720000000E-01 -4.033600000000E-02
  38 T   8 O    -4.621570000000E-01 -4.137160000000E-01 -7.630500000000E-02
  39 T   8 O     1.944890000000E-01 -3.920040000000E-01 -2.653530000000E-01
  40 T   8 O    -3.123240000000E-01 -3.441180000000E-01 -2.506400000000E-01
  41 T   8 O    -4.739420000000E-01 -1.443270000000E-01 -1.238190000000E-01
  42 T   8 O    -3.062900000000E-02  3.390100000000E-02 -2.727000000000E-01
  43 T   8 O     4.690700000000E-02 -2.286100000000E-01 -2.339170000000E-01
  44 T   8 O    -4.019810000000E-01 -1.264360000000E-01 -2.446360000000E-01
  45 T   8 O    -1.658500000000E-01 -1.417940000000E-01 -2.707110000000E-01
  46 T   8 O    -1.012640000000E-01  1.158630000000E-01 -9.329500000000E-02
  47 T   8 O     3.473500000000E-02  4.139340000000E-01 -2.426120000000E-01
  48 T   8 O    -1.805800000000E-01  1.969660000000E-01 -1.964910000000E-01
  49 T   8 O     3.390980000000E-01 -3.407950000000E-01 -1.116400000000E-01
  50 T   8 O    -5.886500000000E-02 -4.510930000000E-01 -3.372030000000E-01
  51 T   8 O    -2.405450000000E-01 -4.800660000000E-01 -5.426500000000E-02
  52 T   8 O     5.965100000000E-02  1.730730000000E-01 -1.814130000000E-01
  53 T   8 O    -2.357440000000E-01  2.796710000000E-01 -5.764700000000E-02
  54 T   8 O     4.813040000000E-01  2.408220000000E-01 -6.731000000000E-02
  55 T   8 O     3.910880000000E-01 -2.535700000000E-02 -2.911560000000E-01
  56 T   8 O    -4.389680000000E-01  4.360950000000E-01 -2.591850000000E-01
  57 T   8 O     1.139560000000E-01  9.447000000000E-02 -5.005400000000E-02
  58 T   8 O     3.050630000000E-01 -2.060480000000E-01 -2.106230000000E-01
  59 T   8 O     3.485840000000E-01  4.530190000000E-01 -3.288300000000E-02
  60 T   8 O    -3.340260000000E-01  3.717130000000E-01 -1.523580000000E-01
  61 T   8 O    -2.354330000000E-01 -1.929060000000E-01 -1.564250000000E-01
  62 T   8 O    -9.528800000000E-02  4.581840000000E-01 -1.457070000000E-01
  63 T   8 O    -3.553160000000E-01 -3.013140000000E-01  9.337000000000E-03
  64 T   8 O     4.243660000000E-01  4.425160000000E-01 -1.591960000000E-01
  65 T   8 O     4.587100000000E-02 -4.445530000000E-01 -5.323600000000E-02
  66 T   8 O    -1.193000000000E-03 -9.246600000000E-02 -1.257930000000E-01
  67 T   8 O     1.609900000000E-01 -8.590900000000E-02 -2.889010000000E-01
  68 T   8 O    -8.695600000000E-02  2.421550000000E-01 -3.082430000000E-01
  69 T   8 O     2.280420000000E-01  1.556360000000E-01 -3.119650000000E-01
  70 T  14 SI    5.087600000000E-02  3.959200000000E-02  1.478100000000E-02
  71 T  14 SI    2.981730000000E-01  3.192830000000E-01  5.892000000000E-03
  72 T  14 SI    1.606620000000E-01  4.220230000000E-01  7.450000000000E-02
  73 T  14 SI    4.098910000000E-01  1.807450000000E-01  7.219400000000E-02
  74 T  14 SI    3.756700000000E-02  2.945180000000E-01  1.406410000000E-01
  75 T  14 SI    2.887440000000E-01  4.861500000000E-02  1.387820000000E-01
  76 T  14 SI    1.641290000000E-01  1.692340000000E-01  2.074580000000E-01
  77 T  14 SI    4.097420000000E-01  4.158230000000E-01  2.132320000000E-01
  78 T  14 SI    7.552900000000E-02 -4.058340000000E-01  1.951900000000E-02
  79 T  14 SI    2.690570000000E-01 -2.451190000000E-01  2.178700000000E-02
  80 T  14 SI    1.680310000000E-01 -9.189100000000E-02  7.915900000000E-02
  81 T  14 SI    3.751820000000E-01 -3.086490000000E-01  1.080450000000E-01
  82 T  14 SI    3.306500000000E-02 -2.057380000000E-01  1.478080000000E-01
  83 T  14 SI    2.726910000000E-01 -4.697800000000E-01  1.524900000000E-01
  84 T  14 SI    1.497110000000E-01 -3.386690000000E-01  2.143070000000E-01
  85 T  14 SI    4.089450000000E-01 -7.568700000000E-02  2.094260000000E-01
  86 T  14 SI   -4.203990000000E-01  9.557800000000E-02  2.264100000000E-02
  87 T  14 SI   -2.557430000000E-01  2.455570000000E-01  1.871300000000E-02
  88 T  14 SI   -3.385930000000E-01  4.181280000000E-01  7.433100000000E-02
  89 T  14 SI   -8.609700000000E-02  1.620820000000E-01  7.602300000000E-02
  90 T  14 SI   -4.693430000000E-01  2.981620000000E-01  1.425520000000E-01
  91 T  14 SI   -2.070900000000E-01  4.181000000000E-02  1.469650000000E-01
  92 T  14 SI   -3.383830000000E-01  1.692270000000E-01  2.075340000000E-01
  93 T  14 SI   -8.653800000000E-02  4.170290000000E-01  2.097460000000E-01
  94 T  14 SI   -3.640180000000E-01 -4.420190000000E-01 -1.644500000000E-02
  95 T  14 SI   -2.355220000000E-01 -2.104770000000E-01  2.494900000000E-02
  96 T  14 SI   -3.438990000000E-01 -6.736500000000E-02  8.328600000000E-02
  97 T  14 SI   -9.143500000000E-02 -3.268260000000E-01  8.200300000000E-02
  98 T  14 SI   -4.597500000000E-01 -2.022130000000E-01  1.493800000000E-01
  99 T  14 SI   -2.136510000000E-01 -4.602270000000E-01  1.446230000000E-01
 100 T  14 SI   -3.390370000000E-01 -3.368360000000E-01  2.129480000000E-01
 101 T  14 SI   -8.859700000000E-02 -8.235400000000E-02  2.149060000000E-01
 102 T  14 SI    4.092200000000E-02  4.564700000000E-02  2.757170000000E-01
 103 T  14 SI    2.873710000000E-01  2.919760000000E-01  2.773400000000E-01
 104 T  14 SI    2.855000000000E-02 -4.621050000000E-01  2.833620000000E-01
 105 T  14 SI    2.841280000000E-01 -2.097940000000E-01  2.705730000000E-01
 106 T  14 SI   -4.613450000000E-01  4.233200000000E-02  2.763630000000E-01
 107 T  14 SI   -2.121110000000E-01  2.916390000000E-01  2.727920000000E-01
 108 T  14 SI   -4.647570000000E-01 -4.628270000000E-01  2.798680000000E-01
 109 T  14 SI   -2.170390000000E-01 -2.089880000000E-01  2.784310000000E-01
 110 T  14 SI    1.610270000000E-01  4.096680000000E-01  3.464390000000E-01
 111 T  14 SI    4.189990000000E-01  1.718370000000E-01  3.413350000000E-01
 112 T  14 SI    3.065600000000E-02  2.927330000000E-01  4.140630000000E-01
 113 T  14 SI    2.967850000000E-01  3.798400000000E-02  3.981870000000E-01
 114 T  14 SI    1.254970000000E-01  1.019550000000E-01  4.571370000000E-01
 115 T  14 SI    4.501570000000E-01  4.544380000000E-01  4.621950000000E-01
 116 T  14 SI    1.643900000000E-01 -8.853800000000E-02  3.375470000000E-01
 117 T  14 SI    4.082470000000E-01 -3.278840000000E-01  3.396320000000E-01
 118 T  14 SI    2.863900000000E-02 -2.008740000000E-01  4.049060000000E-01
 119 T  14 SI    2.857820000000E-01 -4.521030000000E-01  4.059900000000E-01
 120 T  14 SI    1.357040000000E-01 -3.434750000000E-01  4.662680000000E-01
 121 T  14 SI    4.252730000000E-01 -5.825000000000E-02  4.737110000000E-01
 122 T  14 SI   -3.348680000000E-01  4.055430000000E-01  3.440530000000E-01
 123 T  14 SI   -8.814800000000E-02  1.715000000000E-01  3.398850000000E-01
 124 T  14 SI   -4.523350000000E-01  2.794230000000E-01  4.165940000000E-01
 125 T  14 SI   -2.238650000000E-01  6.257100000000E-02  4.060100000000E-01
 126 T  14 SI   -3.361750000000E-01  2.044920000000E-01 -4.882090000000E-01
 127 T  14 SI   -5.719700000000E-02  4.537440000000E-01  4.795830000000E-01
 128 T  14 SI   -3.409310000000E-01 -8.477100000000E-02  3.461030000000E-01
 129 T  14 SI   -1.002910000000E-01 -3.337310000000E-01  3.461770000000E-01
 130 T  14 SI   -4.718050000000E-01 -2.121720000000E-01  4.129330000000E-01
 131 T  14 SI   -2.154970000000E-01 -4.678230000000E-01  4.117570000000E-01
 132 T  14 SI   -3.869770000000E-01 -3.842770000000E-01  4.716650000000E-01
 133 T  14 SI   -5.289200000000E-02 -2.252100000000E-02  4.554770000000E-01
 134 T  14 SI   -1.989680000000E-01  1.631010000000E-01 -3.551540000000E-01
 135 T  14 SI    2.326830000000E-01  3.054840000000E-01 -3.301180000000E-01
 136 T  14 SI    2.361130000000E-01 -5.685200000000E-02 -4.736530000000E-01
 137 T  14 SI   -2.940530000000E-01 -3.693200000000E-01 -4.231050000000E-01
 138 T  14 SI    2.514520000000E-01 -3.132360000000E-01 -4.042400000000E-01
 139 T  14 SI   -2.590800000000E-02 -3.304800000000E-01 -3.785500000000E-01
 140 T  14 SI   -2.527730000000E-01  4.111600000000E-01 -4.579970000000E-01
 141 T  14 SI    4.956460000000E-01  1.068900000000E-02 -4.090690000000E-01
 142 T  14 SI   -2.066350000000E-01 -5.593000000000E-03 -4.224930000000E-01
 143 T  14 SI    4.177710000000E-01  4.370680000000E-01 -4.242410000000E-01
 144 T  14 SI   -3.246130000000E-01 -4.764990000000E-01 -2.858780000000E-01
 145 T  14 SI    3.853600000000E-02  4.589440000000E-01 -1.112190000000E-01
 146 T  14 SI    4.883520000000E-01 -1.449900000000E-01 -2.962840000000E-01
 147 T  14 SI   -4.923480000000E-01  1.428990000000E-01 -1.225760000000E-01
 148 T  14 SI    4.127630000000E-01 -2.086350000000E-01 -9.507400000000E-02
 149 T  14 SI   -2.765760000000E-01 -2.011150000000E-01 -2.291020000000E-01
 150 T  14 SI    1.715650000000E-01  4.736610000000E-01 -2.328220000000E-01
 151 T  14 SI   -2.254640000000E-01  1.828060000000E-01 -1.194180000000E-01
 152 T  14 SI    3.427600000000E-02  1.737920000000E-01 -1.038200000000E-01
 153 T  14 SI   -5.206400000000E-02  4.118030000000E-01 -3.049270000000E-01
 154 T  14 SI   -5.364600000000E-02  1.570980000000E-01 -2.323830000000E-01
 155 T  14 SI   -4.657130000000E-01  3.590430000000E-01 -1.936620000000E-01
 156 T  14 SI    3.916890000000E-01 -4.815120000000E-01 -9.676800000000E-02
 157 T  14 SI    2.595710000000E-01  1.060700000000E-02 -3.236850000000E-01
 158 T  14 SI    1.913110000000E-01 -2.365540000000E-01 -2.599970000000E-01
 159 T  14 SI   -1.802500000000E-02 -1.228080000000E-01 -2.800070000000E-01
 160 T  14 SI   -1.069100000000E-01 -1.879900000000E-01 -1.124390000000E-01
 161 T  14 SI   -2.381060000000E-01  4.845600000000E-01 -1.298340000000E-01

 T = ATOM BELONGING TO THE ASYMMETRIC UNIT

 ****   1 SYMMOPS - TRANSLATORS IN FRACTIONAL UNITS
  V INV                   ROTATION MATRICES                       TRANSLATOR
  1  1  1.00  0.00  0.00  0.00  1.00  0.00  0.00  0.00  1.00    0.00  0.00  0.00

 DIRECT LATTICE VECTORS CARTESIAN COMPONENTS (ANGSTROM)
          X                    Y                    Z
   0.108757000000E+02   0.665944559674E-15   0.000000000000E+00
   0.000000000000E+00   0.107787000000E+02   0.000000000000E+00
   0.129730509374E-14   0.129730509374E-14   0.211866000000E+02


 CARTESIAN COORDINATES - PRIMITIVE CELL
 *******************************************************************************
 *      ATOM          X(ANGSTROM)         Y(ANGSTROM)         Z(ANGSTROM)
 *******************************************************************************
   1     1 H     2.611396954100E+00  2.635984978500E+00 -9.092017524000E-01
   2     1 H     4.905789004600E+00 -4.315748365200E+00  1.431684495000E+00
   3     1 H    -4.877664444400E+00  1.732999386000E-01 -6.962552358000E-01
   4     1 H     5.759553206000E-01 -4.727473147800E+00 -1.055202850320E+01
   5     1 H    -2.743079929700E+00 -1.382734750800E+00 -8.574661938600E+00
   6     1 H    -5.193625280800E+00  5.026679081100E+00 -8.188175981400E+00
   7     1 H     4.558854174600E+00  4.368607110000E-01 -2.717139076800E+00
   8     1 H    -4.657627282000E+00 -3.747807883500E+00 -2.224593000000E+00
   9     1 H    -7.536316315000E-01 -3.438717882300E+00 -2.429679288000E+00
  10     1 H    -3.108438195500E+00 -4.378674415800E+00 -3.407546811000E+00
  11     1 H    -3.731724562500E+00  2.084007751500E+00 -5.888158685400E+00
  12     1 H     5.052426067700E+00 -2.995961222400E+00 -6.136804623000E+00
  13     1 H     3.810562511800E+00 -3.047623531500E+00 -4.354799697000E+00
  14     8 O    -4.915555383200E+00 -1.219911708600E+00 -7.782537337800E+00
  15     8 O     3.865071520200E+00  3.558814157700E+00 -8.048471541000E+00
  16     8 O    -2.183807932900E+00  2.713246700100E+00 -9.326807425200E+00
  17     8 O     3.758989942400E+00 -4.642774123200E+00 -8.817714613800E+00
  18     8 O    -3.527228775400E+00  2.013762963600E+00 -6.835114959000E+00
  19     8 O    -1.622784948400E+00 -3.487901090400E+00 -9.007991468400E+00
  20     8 O    -3.908954969700E+00 -4.645048428900E+00 -7.594167277200E+00
  21     8 O     2.599759955100E+00 -8.066779080000E-02 -8.489068074600E+00
  22     8 O     1.167810914600E+00  3.885990817500E+00 -7.585099412400E+00
  23     8 O    -3.816370135600E+00  7.224315888000E-01 -9.530177598600E+00
  24     8 O    -9.209542760000E-01 -1.263479214000E-01 -9.896960017800E+00
  25     8 O    -4.306711945800E+00  3.641680803300E+00 -9.442380328200E+00
  26     8 O     3.338731143000E+00 -2.455517204400E+00 -7.426199912400E+00
  27     8 O     1.208181513000E+00 -3.976693578000E+00 -8.546674440000E+00
  28     8 O    -1.391219544000E-01 -2.025878222400E+00 -7.492768209600E+00
  29     8 O     2.411153565700E+00 -2.556168705000E+00 -1.007986393560E+01
  30     8 O     5.428714412000E-01  3.461536390200E+00 -1.741347840600E+00
  31     8 O     2.937907219500E+00  4.047003038100E+00 -5.559151974000E+00
  32     8 O     1.757121594800E+00  5.239224266400E+00 -3.280660263600E+00
  33     8 O    -5.436729802900E+00  2.255971131300E+00 -4.165349119800E+00
  34     8 O    -3.735226537900E+00  1.041330207000E+00 -2.594023744200E+00
  35     8 O    -2.221220340900E+00  4.701183898500E+00 -5.857099129800E+00
  36     8 O     4.177541256900E+00 -1.969225375200E+00 -4.641348462000E-01
  37     8 O    -1.824898957200E+00 -1.783573046400E+00 -8.545826976000E-01
  38     8 O    -5.026280884900E+00 -4.459320649200E+00 -1.616643513000E+00
  39     8 O     2.115204017300E+00 -4.225293514800E+00 -5.621927869800E+00
  40     8 O    -3.396742126800E+00 -3.709144686600E+00 -5.310209424000E+00
  41     8 O    -5.154451009400E+00 -1.555657434900E+00 -2.623303625400E+00
  42     8 O    -3.331118153000E-01  3.654087087000E-01 -5.777585820000E+00
  43     8 O     5.101464599000E-01 -2.464118607000E+00 -4.955905912200E+00
  44     8 O    -4.371824761700E+00 -1.362815713200E+00 -5.183005077600E+00
  45     8 O    -1.803734845000E+00 -1.528354987800E+00 -5.735445672600E+00
  46     8 O    -1.101316884800E+00  1.248852518100E+00 -1.976603847000E+00
  47     8 O     3.777674395000E-01  4.461670405800E+00 -5.140123399200E+00
  48     8 O    -1.963933906000E+00  2.123037424200E+00 -4.162976220600E+00
  49     8 O     3.687928118600E+00 -3.673327066500E+00 -2.365272024000E+00
  50     8 O    -6.401980805000E-01 -4.862196119100E+00 -7.144185079800E+00
  51     8 O    -2.616095256500E+00 -5.174487394200E+00 -1.149690849000E+00
  52     8 O     6.487463807000E-01  1.865501945100E+00 -3.843524665800E+00
  53     8 O    -2.563881020800E+00  3.014489807700E+00 -1.221343930200E+00
  54     8 O     5.234517912800E+00  2.595748091400E+00 -1.426070046000E+00
  55     8 O     4.253355761600E+00 -2.733154959000E-01 -6.168605709600E+00
  56     8 O    -4.774084277600E+00  4.700537176500E+00 -5.491248921000E+00
  57     8 O     1.239351269200E+00  1.018263789000E+00 -1.060474076400E+00
  58     8 O     3.317773669100E+00 -2.220929577600E+00 -4.462385251800E+00
  59     8 O     3.791095008800E+00  4.882955895300E+00 -6.966789678000E-01
  60     8 O    -3.632766568200E+00  4.006582913100E+00 -3.227948002800E+00
  61     8 O    -2.560498678100E+00 -2.079275902200E+00 -3.314113905000E+00
  62     8 O    -1.036323701600E+00  4.938627880800E+00 -3.087035926200E+00
  63     8 O    -3.864310221200E+00 -3.247773211800E+00  1.978192842000E-01
  64     8 O     4.615277306200E+00  4.769747209200E+00 -3.372821973600E+00
  65     8 O     4.988792347000E-01 -4.791703421100E+00 -1.127889837600E+00
  66     8 O    -1.297471010000E-02 -9.966632742000E-01 -2.665125973800E+00
  67     8 O     1.750878943000E+00 -9.259873383000E-01 -6.120829926600E+00
  68     8 O    -9.457073692000E-01  2.610116098500E+00 -6.530621143800E+00
  69     8 O     2.480116379400E+00  1.677553753200E+00 -6.609477669000E+00
  70    14 SI    5.533121132000E-01  4.267502904000E-01  3.131591346000E-01
  71    14 SI    3.242840096100E+00  3.441455672100E+00  1.248314472000E-01
  72    14 SI    1.747311713400E+00  4.548859310100E+00  1.578401700000E+00
  73    14 SI    4.457851548700E+00  1.948196131500E+00  1.529545400400E+00
  74    14 SI    4.085674219000E-01  3.174521166600E+00  2.979704610600E+00
  75    14 SI    3.140293120800E+00  5.240065005000E-01  2.940318721200E+00
  76    14 SI    1.785017765300E+00  1.824122515800E+00  4.395329662800E+00
  77    14 SI    4.456231069400E+00  4.482031370100E+00  4.517661091200E+00
  78    14 SI    8.214307453000E-01 -4.374362935800E+00  4.135412454000E-01
  79    14 SI    2.926183214900E+00 -2.642064165300E+00  4.615924542000E-01
  80    14 SI    1.827454746700E+00 -9.904655217000E-01  1.677110069400E+00
  81    14 SI    4.080366877400E+00 -3.326834976300E+00  2.289106197000E+00
  82    14 SI    3.596050205000E-01 -2.217588180600E+00  3.131548972800E+00
  83    14 SI    2.965705508700E+00 -5.063617686000E+00  3.230744634000E+00
  84    14 SI    1.628211922700E+00 -3.650411550300E+00  4.540436686200E+00
  85    14 SI    4.447563136500E+00 -8.158074669000E-01  4.437024891600E+00
  86    14 SI   -4.572133404300E+00  1.030206588600E+00  4.796858106000E-01
  87    14 SI   -2.781384145100E+00  2.646785235900E+00  3.964648458000E-01
  88    14 SI   -3.682435890100E+00  4.506876273600E+00  1.574821164600E+00
  89    14 SI   -9.363651429000E-01  1.747033253400E+00  1.610668891800E+00
  90    14 SI   -5.104433665100E+00  3.213798749400E+00  3.020192203200E+00
  91    14 SI   -2.252248713000E+00  4.506574470000E-01  3.113688669000E+00
  92    14 SI   -3.680151993100E+00  1.824047064900E+00  4.396939844400E+00
  93    14 SI   -9.411613266000E-01  4.495030482300E+00  4.443804603600E+00
  94    14 SI   -3.958950562600E+00 -4.764390195300E+00 -3.484136370000E-01
  95    14 SI   -2.561466615400E+00 -2.268668439900E+00  5.285844834000E-01
  96    14 SI   -3.740142354300E+00 -7.261071255000E-01  1.764547167600E+00
  97    14 SI   -9.944196295000E-01 -3.522759406200E+00  1.737364759800E+00
  98    14 SI   -5.000103075000E+00 -2.179593263100E+00  3.164854308000E+00
  99    14 SI   -2.323604180700E+00 -4.960648764900E+00  3.064069651800E+00
 100    14 SI   -3.687264700900E+00 -3.630654193200E+00  4.511644096800E+00
 101    14 SI   -9.635543929000E-01 -8.876690598000E-01  4.553127459600E+00
 102    14 SI    4.450553954000E-01  4.920153189000E-01  5.841505792200E+00
 103    14 SI    3.125360784700E+00  3.147121711200E+00  5.875891644000E+00
 104    14 SI    3.105012350000E-01 -4.980891163500E+00  6.003477349200E+00
 105    14 SI    3.090090889600E+00 -2.261306587800E+00  5.732521921800E+00
 106    14 SI   -5.017449816500E+00  4.562839284000E-01  5.855192335800E+00
 107    14 SI   -2.306855602700E+00  3.143489289300E+00  5.779534987200E+00
 108    14 SI   -5.054557704900E+00 -4.988673384900E+00  5.929451368800E+00
 109    14 SI   -2.360451052300E+00 -2.252618955600E+00  5.899006224600E+00
 110    14 SI    1.751281343900E+00  4.415688471600E+00  7.339864517400E+00
 111    14 SI    4.556907424300E+00  1.852179471900E+00  7.231728111000E+00
 112    14 SI    3.334054592000E-01  3.155281187100E+00  8.772587155800E+00
 113    14 SI    3.227744624500E+00  4.094181408000E-01  8.436228694200E+00
 114    14 SI    1.364867722900E+00  1.098942358500E+00  9.685178764200E+00
 115    14 SI    4.895772484900E+00  4.898250870600E+00  9.792340587000E+00
 116    14 SI    1.787856323000E+00 -9.543245406000E-01  7.151473270200E+00
 117    14 SI    4.439971897900E+00 -3.534163270800E+00  7.195647331200E+00
 118    14 SI    3.114691723000E-01 -2.165160583800E+00  8.578581459600E+00
 119    14 SI    3.108079297400E+00 -4.873082606100E+00  8.601547734000E+00
 120    14 SI    1.475875992800E+00 -3.702213982500E+00  9.878633608800E+00
 121    14 SI    4.625141566100E+00 -6.278592750000E-01  1.003632547260E+01
 122    14 SI   -3.641923907600E+00  4.371226334100E+00  7.289313289800E+00
 123    14 SI   -9.586712036000E-01  1.848547050000E+00  7.201007541000E+00
 124    14 SI   -4.919459759500E+00  3.011816690100E+00  8.826210440400E+00
 125    14 SI   -2.434688580500E+00  6.744340377000E-01  8.601971466000E+00
 126    14 SI   -3.656138447500E+00  2.204157920400E+00 -1.034348879940E+01
 127    14 SI   -6.220574129000E-01  4.890770452800E+00  1.016073318780E+01
 128    14 SI   -3.707863276700E+00 -9.137211777000E-01  7.332745819800E+00
 129    14 SI   -1.090734828700E+00 -3.597186329700E+00  7.334313628200E+00
 130    14 SI   -5.131209638500E+00 -2.286938336400E+00  8.748646297800E+00
 131    14 SI   -2.343680722900E+00 -5.042523770100E+00  8.723730856200E+00
 132    14 SI   -4.208645758900E+00 -4.142006499900E+00  9.992977689000E+00
 133    14 SI   -5.752375244000E-01 -2.427471027000E-01  9.650009008200E+00
 134    14 SI   -2.163916277600E+00  1.758016748700E+00 -7.524505736400E+00
 135    14 SI    2.530590503100E+00  3.292720390800E+00 -6.994078018800E+00
 136    14 SI    2.567894154100E+00 -6.127906524000E-01 -1.003509664980E+01
 137    14 SI   -3.198032212100E+00 -3.980789484000E+00 -8.964156393000E+00
 138    14 SI    2.734716516400E+00 -3.376276873200E+00 -8.564471184000E+00
 139    14 SI   -2.817676356000E-01 -3.562144776000E+00 -8.020187430000E+00
 140    14 SI   -2.749083316100E+00  4.431770292000E+00 -9.703399240200E+00
 141    14 SI    5.390497202200E+00  1.152135243000E-01 -8.666781275400E+00
 142    14 SI   -2.247300269500E+00 -6.028526910000E-02 -8.951190193800E+00
 143    14 SI    4.543552064700E+00  4.711024851600E+00 -8.988224370600E+00
 144    14 SI   -3.530393604100E+00 -5.136039771300E+00 -6.056782834800E+00
 145    14 SI    4.191059752000E-01  4.946819692800E+00 -2.356352465400E+00
 146    14 SI    5.311169846400E+00 -1.562803713000E+00 -6.277250594400E+00
 147    14 SI   -5.354629143600E+00  1.540265451300E+00 -2.596968681600E+00
 148    14 SI    4.489086559100E+00 -2.248814074500E+00 -2.014294808400E+00
 149    14 SI   -3.007957603200E+00 -2.167758250500E+00 -4.853892433200E+00
 150    14 SI    1.865889470500E+00  5.105449820700E+00 -4.932706585200E+00
 151    14 SI   -2.452078824800E+00  1.970411032200E+00 -2.530061398800E+00
 152    14 SI    3.727754932000E-01  1.873251830400E+00 -2.199592812000E+00
 153    14 SI   -5.662324448000E-01  4.438700996100E+00 -6.460366378200E+00
 154    14 SI   -5.834378022000E-01  1.693312212600E+00 -4.923405667800E+00
 155    14 SI   -5.064954874100E+00  3.870016784100E+00 -4.103039329200E+00
 156    14 SI    4.259892057300E+00 -5.190073394400E+00 -2.050184908800E+00
 157    14 SI    2.823016324700E+00  1.143296709000E-01 -6.857784621000E+00
 158    14 SI    2.080641042700E+00 -2.549744599800E+00 -5.508452440200E+00
 159    14 SI   -1.960344925000E-01 -1.323710589600E+00 -5.932396306200E+00
 160    14 SI   -1.162721087000E+00 -2.026287813000E+00 -2.382200117400E+00
 161    14 SI   -2.589569424200E+00  5.222926872000E+00 -2.750741024400E+00

 *******************************************************************************
 LOCAL ATOMIC FUNCTIONS BASIS SET
 *******************************************************************************
   ATOM  X(AU)  Y(AU)  Z(AU)    NO. TYPE  EXPONENT  S COEF   P COEF   D/F/G COEF
 *******************************************************************************
   1 H   4.935  4.981 -1.718
                                  1 S  
                                         1.873E+01 3.349E-02 0.000E+00 0.000E+00
                                         2.825E+00 2.347E-01 0.000E+00 0.000E+00
                                         6.401E-01 8.138E-01 0.000E+00 0.000E+00
                                  2 S  
                                         1.613E-01 1.000E+00 0.000E+00 0.000E+00
                             3-   5 P  
                                         1.100E+00 0.000E+00 1.000E+00 0.000E+00
   2 H   9.271 -8.156  2.705
   3 H  -9.217  0.327 -1.316
   4 H   1.088 -8.934-19.940
   5 H  -5.184 -2.613-16.204
   6 H  -9.815  9.499-15.473
   7 H   8.615  0.826 -5.135
   8 H  -8.802 -7.082 -4.204
   9 H  -1.424 -6.498 -4.591
  10 H  -5.874 -8.274 -6.439
  11 H  -7.052  3.938-11.127
  12 H   9.548 -5.662-11.597
  13 H   7.201 -5.759 -8.229
  14 O  -9.289 -2.305-14.707
                                 66 S  
                                         8.020E+03 1.080E-03 0.000E+00 0.000E+00
                                         1.338E+03 8.040E-03 0.000E+00 0.000E+00
                                         2.554E+02 5.324E-02 0.000E+00 0.000E+00
                                         6.922E+01 1.681E-01 0.000E+00 0.000E+00
                                         2.390E+01 3.581E-01 0.000E+00 0.000E+00
                                         9.264E+00 3.855E-01 0.000E+00 0.000E+00
                                         3.851E+00 1.468E-01 0.000E+00 0.000E+00
                                         1.212E+00 7.280E-02 0.000E+00 0.000E+00
                            67-  70 SP 
                                         4.943E+01-8.830E-03 9.580E-03 0.000E+00
                                         1.047E+01-9.150E-02 6.960E-02 0.000E+00
                                         3.235E+00-4.020E-02 2.065E-01 0.000E+00
                                         1.217E+00 3.790E-01 3.470E-01 0.000E+00
                            71-  74 SP 
                                         4.763E-01 1.000E+00 1.000E+00 0.000E+00
                            75-  78 SP 
                                         1.900E-01 1.000E+00 1.000E+00 0.000E+00
  15 O   7.304  6.725-15.209
  16 O  -4.127  5.127-17.625
  17 O   7.103 -8.774-16.663
  18 O  -6.665  3.805-12.916
  19 O  -3.067 -6.591-17.023
  20 O  -7.387 -8.778-14.351
  21 O   4.913 -0.152-16.042
  22 O   2.207  7.343-14.334
  23 O  -7.212  1.365-18.009
  24 O  -1.740 -0.239-18.703
  25 O  -8.139  6.882-17.844
  26 O   6.309 -4.640-14.033
  27 O   2.283 -7.515-16.151
  28 O  -0.263 -3.828-14.159
  29 O   4.556 -4.830-19.048
  30 O   1.026  6.541 -3.291
  31 O   5.552  7.648-10.505
  32 O   3.320  9.901 -6.200
  33 O -10.274  4.263 -7.871
  34 O  -7.059  1.968 -4.902
  35 O  -4.197  8.884-11.068
  36 O   7.894 -3.721 -0.877
  37 O  -3.449 -3.370 -1.615
  38 O  -9.498 -8.427 -3.055
  39 O   3.997 -7.985-10.624
  40 O  -6.419 -7.009-10.035
  41 O  -9.741 -2.940 -4.957
  42 O  -0.629  0.691-10.918
  43 O   0.964 -4.657 -9.365
  44 O  -8.262 -2.575 -9.794
  45 O  -3.409 -2.888-10.838
  46 O  -2.081  2.360 -3.735
  47 O   0.714  8.431 -9.713
  48 O  -3.711  4.012 -7.867
  49 O   6.969 -6.942 -4.470
  50 O  -1.210 -9.188-13.501
  51 O  -4.944 -9.778 -2.173
  52 O   1.226  3.525 -7.263
  53 O  -4.845  5.697 -2.308
  54 O   9.892  4.905 -2.695
  55 O   8.038 -0.516-11.657
  56 O  -9.022  8.883-10.377
  57 O   2.342  1.924 -2.004
  58 O   6.270 -4.197 -8.433
  59 O   7.164  9.227 -1.317
  60 O  -6.865  7.571 -6.100
  61 O  -4.839 -3.929 -6.263
  62 O  -1.958  9.333 -5.834
  63 O  -7.302 -6.137  0.374
  64 O   8.722  9.014 -6.374
  65 O   0.943 -9.055 -2.131
  66 O  -0.025 -1.883 -5.036
  67 O   3.309 -1.750-11.567
  68 O  -1.787  4.932-12.341
  69 O   4.687  3.170-12.490
  70 SI  1.046  0.806  0.592
                                794 S  
                                         8.765E+04 2.370E-04 0.000E+00 0.000E+00
                                         1.285E+04 1.920E-03 0.000E+00 0.000E+00
                                         2.786E+03 1.090E-02 0.000E+00 0.000E+00
                                         7.280E+02 4.960E-02 0.000E+00 0.000E+00
                                         2.195E+02 1.668E-01 0.000E+00 0.000E+00
                                         7.590E+01 3.630E-01 0.000E+00 0.000E+00
                                         2.946E+01 4.051E-01 0.000E+00 0.000E+00
                                         1.199E+01 1.504E-01 0.000E+00 0.000E+00
                           795- 798 SP 
                                         1.660E+02-8.840E-03 9.090E-03 0.000E+00
                                         3.937E+01-8.590E-02 6.010E-02 0.000E+00
                                         1.271E+01-7.120E-02 1.952E-01 0.000E+00
                                         4.718E+00 4.147E-01 3.384E-01 0.000E+00
                                         1.848E+00 6.168E-01 3.006E-01 0.000E+00
                                         7.365E-01 1.154E-01 6.480E-02 0.000E+00
                           799- 802 SP 
                                         4.175E+00-1.990E-02-8.700E-03 0.000E+00
                                         1.447E+00-1.864E-01-4.380E-03 0.000E+00
                                         5.023E-01 9.670E-02 2.207E-01 0.000E+00
                           803- 806 SP 
                                         3.220E-01 1.000E+00 1.000E+00 0.000E+00
                           807- 810 SP 
                                         1.300E-01 1.000E+00 1.000E+00 0.000E+00
                           811- 815 D  
                                         6.000E-01 0.000E+00 0.000E+00 1.000E+00
  71 SI  6.128  6.503  0.236
  72 SI  3.302  8.596  2.983
  73 SI  8.424  3.682  2.890
  74 SI  0.772  5.999  5.631
  75 SI  5.934  0.990  5.556
  76 SI  3.373  3.447  8.306
  77 SI  8.421  8.470  8.537
  78 SI  1.552 -8.266  0.781
  79 SI  5.530 -4.993  0.872
  80 SI  3.453 -1.872  3.169
  81 SI  7.711 -6.287  4.326
  82 SI  0.680 -4.191  5.918
  83 SI  5.604 -9.569  6.105
  84 SI  3.077 -6.898  8.580
  85 SI  8.405 -1.542  8.385
  86 SI -8.640  1.947  0.906
  87 SI -5.256  5.002  0.749
  88 SI -6.959  8.517  2.976
  89 SI -1.769  3.301  3.044
  90 SI -9.646  6.073  5.707
  91 SI -4.256  0.852  5.884
  92 SI -6.954  3.447  8.309
  93 SI -1.779  8.494  8.398
  94 SI -7.481 -9.003 -0.658
  95 SI -4.840 -4.287  0.999
  96 SI -7.068 -1.372  3.335
  97 SI -1.879 -6.657  3.283
  98 SI -9.449 -4.119  5.981
  99 SI -4.391 -9.374  5.790
 100 SI -6.968 -6.861  8.526
 101 SI -1.821 -1.677  8.604
 102 SI  0.841  0.930 11.039
 103 SI  5.906  5.947 11.104
 104 SI  0.587 -9.413 11.345
 105 SI  5.839 -4.273 10.833
 106 SI -9.482  0.862 11.065
 107 SI -4.359  5.940 10.922
 108 SI -9.552 -9.427 11.205
 109 SI -4.461 -4.257 11.148
 110 SI  3.309  8.344 13.870
 111 SI  8.611  3.500 13.666
 112 SI  0.630  5.963 16.578
 113 SI  6.100  0.774 15.942
 114 SI  2.579  2.077 18.302
 115 SI  9.252  9.256 18.505
 116 SI  3.379 -1.803 13.514
 117 SI  8.390 -6.679 13.598
 118 SI  0.589 -4.092 16.211
 119 SI  5.873 -9.209 16.255
 120 SI  2.789 -6.996 18.668
 121 SI  8.740 -1.186 18.966
 122 SI -6.882  8.260 13.775
 123 SI -1.812  3.493 13.608
 124 SI -9.296  5.692 16.679
 125 SI -4.601  1.274 16.255
 126 SI -6.909  4.165-19.546
 127 SI -1.176  9.242 19.201
 128 SI -7.007 -1.727 13.857
 129 SI -2.061 -6.798 13.860
 130 SI -9.697 -4.322 16.533
 131 SI -4.429 -9.529 16.485
 132 SI -7.953 -7.827 18.884
 133 SI -1.087 -0.459 18.236
 134 SI -4.089  3.322-14.219
 135 SI  4.782  6.222-13.217
 136 SI  4.853 -1.158-18.964
 137 SI -6.043 -7.523-16.940
 138 SI  5.168 -6.380-16.185
 139 SI -0.532 -6.731-15.156
 140 SI -5.195  8.375-18.337
 141 SI 10.187  0.218-16.378
 142 SI -4.247 -0.114-16.915
 143 SI  8.586  8.903-16.985
 144 SI -6.671 -9.706-11.446
 145 SI  0.792  9.348 -4.453
 146 SI 10.037 -2.953-11.862
 147 SI-10.119  2.911 -4.908
 148 SI  8.483 -4.250 -3.806
 149 SI -5.684 -4.096 -9.173
 150 SI  3.526  9.648 -9.321
 151 SI -4.634  3.724 -4.781
 152 SI  0.704  3.540 -4.157
 153 SI -1.070  8.388-12.208
 154 SI -1.103  3.200 -9.304
 155 SI -9.571  7.313 -7.754
 156 SI  8.050 -9.808 -3.874
 157 SI  5.335  0.216-12.959
 158 SI  3.932 -4.818-10.409
 159 SI -0.370 -2.501-11.211
 160 SI -2.197 -3.829 -4.502
 161 SI -4.894  9.870 -5.198
 INFORMATION **** TOLINTEG **** COULOMB AND EXCHANGE SERIES TOLERANCES MODIFIED
 INFORMATION **** READM2 **** FULL DIRECT SCF (MONO AND BIEL INT) SELECTED
 INFORMATION **** SMEAR **** FERMI SMEARING ACTIVE
 FERMI SMEARING - TEMPERATURE SMEARING OF FERMI SURFACE  0.1000E-12
 INFORMATION **** MAXCYCLE **** MAX NUMBER OF SCF CYCLES SET TO         150

 MODIFIED BROYDEN MIXING OF THE FOCK MATRIX
 WO PARAMETER(D.D. Johnson, PRB38, 12807,(1988)             1.0000E-04
 % OF FOCK/KS MATRICES MIXING WHEN BROYDEN METHOD IS ON             90
 NUMBER OF SCF ITERATIONS AFTER WHICH BROYDEN METHOD IS ACTIVE      80
 INFORMATION **** TOLDEE **** SCF TOL ON TOTAL ENERGY SET TO           7
 *******************************************************************************
 N. OF ATOMS PER CELL      161  COULOMB OVERLAP TOL         (T1) 10** -8
 NUMBER OF SHELLS          815  COULOMB PENETRATION TOL     (T2) 10** -8
 NUMBER OF AO             2817  EXCHANGE OVERLAP TOL        (T3) 10** -8
 N. OF ELECTRONS PER CELL 1749  EXCHANGE PSEUDO OVP (F(G))  (T4) 10** -8
 CORE ELECTRONS PER CELL  1032  EXCHANGE PSEUDO OVP (P(G))  (T5) 10**-16
 N. OF SYMMETRY OPERATORS    1  POLE ORDER IN MONO ZONE                4
 *******************************************************************************
 TYPE OF CALCULATION :  UNRESTRICTED OPEN SHELL
 KOHN-SHAM HAMILTONIAN

 (EXCHANGE)[CORRELATION] FUNCTIONAL:(BECKE)[LEE-YANG-PARR]

 NON-LOCAL WEIGHTING FACTOR (EXCHANGE) =           0.9000
 NON-LOCAL WEIGHTING FACTOR [CORRELATION] =        0.8100

 HYBRID EXCHANGE - PERCENTAGE OF FOCK EXCHANGE     5.0000

 SPIN POLARIZED DFT SELECTED

 CAPPA:IS1  2;IS2  2;IS3  2; K PTS MONK NET    8; SYMMOPS: K SPACE  2;G SPACE  1

 *******************************************************************************
 MAX NUMBER OF SCF CYCLES     150  CONVERGENCE ON DELTAP        10**-17
 WEIGHT OF F(I) IN F(I+1)      92% CONVERGENCE ON ENERGY        10**- 7
 SHRINK. FACT.(MONKH.)    2  2  2  NUMBER OF K POINTS IN THE IBZ      8
 SHRINKING FACTOR(GILAT NET)    2  NUMBER OF K POINTS(GILAT NET)      8
 *******************************************************************************
 *** K POINTS COORDINATES (OBLIQUE COORDINATES IN UNITS OF IS =  2)
   1-R(  0  0  0)   2-R(  1  0  0)   3-R(  0  1  0)   4-R(  1  1  0)
   5-R(  0  0  1)   6-R(  1  0  1)   7-R(  0  1  1)   8-R(  1  1  1)

 DIRECT LATTICE VECTORS COMPON. (A.U.)     RECIP. LATTICE VECTORS COMPON. (A.U.) 
        X            Y            Z              X            Y            Z
   20.5520945    0.0000000    0.0000000      0.3057199    0.0000000    0.0000000
    0.0000000   20.3687911    0.0000000      0.0000000    0.3084712    0.0000000
    0.0000000    0.0000000   40.0368717      0.0000000    0.0000000    0.1569350

 DISK SPACE FOR EIGENVECTORS (FTN 10)   63483912 REALS

 SYMMETRY ADAPTION OF THE BLOCH FUNCTIONS DISABLED
 TTTTTTTTTTTTTTTTTTTTTTTTTTTTTT gordsh1     TELAPSE        5.59 TCPU        0.66

 DIMENSIONS  P(G)= 6576779 F(G)= 1173569 P(G),F(G) (IRR) 3296943
 MAX G-VECTOR INDEX FOR 1- AND 2-ELECTRON INTEGRALS  47

 TTTTTTTTTTTTTTTTTTTTTTTTTTTTTT INPUT       TELAPSE        5.95 TCPU        1.01

 NEIGHBORS OF THE NON-EQUIVALENT ATOMS

 N = NUMBER OF NEIGHBORS AT DISTANCE R
    ATOM  N     R/ANG      R/AU   NEIGHBORS (ATOM LABELS AND CELL INDICES)
   1 H    1     1.4549     2.7494  71 SI   0 0 0
   1 H    1     2.1266     4.0187  57 O    0 0 0
   1 H    1     2.3776     4.4929  30 O    0 0 0
   1 H    1     2.5467     4.8126  59 O    0 0 0
   1 H    1     2.6739     5.0529  54 O    0 0 0
   1 H    1     2.6941     5.0912 152 SI   0 0 0

   2 H    1     1.5474     2.9242  81 SI   0 0 0
   2 H    1     2.6639     5.0341  63 O    1 0 0
   2 H    1     2.7229     5.1455  94 SI   1 0 0
   2 H    1     2.7495     5.1958  83 SI   0 0 0
   2 H    1     2.7679     5.2305  79 SI   0 0 0
   2 H    1     2.8756     5.4340  59 O    0-1 0

   3 H    1     1.4868     2.8096  86 SI   0 0 0
   3 H    1     2.3791     4.4959  34 O    0 0 0
   3 H    1     2.3893     4.5151 147 SI   0 0 0
   3 H    1     2.4949     4.7147   7 H   -1 0 0
   3 H    1     2.6037     4.9203  41 O    0 0 0
   3 H    1     2.6427     4.9940  54 O   -1 0 0

   4 H    1     1.5596     2.9473 120 SI   0 0-1
   4 H    1     1.7339     3.2766 127 SI   0-1-1
   4 H    1     2.2327     4.2191  27 O    0 0 0
   4 H    1     2.8819     5.4460  29 O    0 0 0
   4 H    1     2.9161     5.5107 139 SI   0 0 0
   4 H    1     2.9589     5.5915  19 O    0 0 0

   5 H    1     1.4617     2.7621 142 SI   0 0 0
   5 H    1     2.3181     4.3806  14 O    0 0 0
   5 H    1     2.4237     4.5802  19 O    0 0 0
   5 H    1     2.5489     4.8166  23 O    0 0 0
   5 H    1     2.5782     4.8721  24 O    0 0 0
   5 H    1     2.6662     5.0384 137 SI   0 0 0

   6 H    1     1.4269     2.6964 143 SI  -1 0 0
   6 H    1     1.7968     3.3955  20 O    0 1 0
   6 H    1     2.0683     3.9085  25 O    0 0 0
   6 H    1     2.3076     4.3607  17 O   -1 1 0
   6 H    1     2.3400     4.4220  15 O   -1 0 0
   6 H    1     2.7488     5.1944  56 O    0 0 0

   7 H    1     1.4689     2.7759 147 SI   1 0 0
   7 H    1     2.3087     4.3628  41 O    1 0 0
   7 H    1     2.4862     4.6982  33 O    1 0 0
   7 H    1     2.4949     4.7147   3 H    1 0 0
   7 H    1     2.6046     4.9221  54 O    0 0 0
   7 H    1     2.6543     5.0159  34 O    1 0 0

   8 H    1     1.0059     1.9008  38 O    0 0 0
   8 H    1     2.0487     3.8716  10 H    0 0 0
   8 H    1     2.2454     4.2431  94 SI   0 0 0
   8 H    1     2.2828     4.3139  41 O    0 0 0
   8 H    1     2.2980     4.3425 148 SI  -1 0 0
   8 H    1     2.4382     4.6076 156 SI  -1 0 0

   9 H    1     1.4712     2.7803 160 SI   0 0 0
   9 H    1     2.2570     4.2651  65 O    0 0 0
   9 H    1     2.4280     4.5882  61 O    0 0 0
   9 H    1     2.5057     4.7351  62 O    0-1 0
   9 H    1     2.5235     4.7687  37 O    0 0 0
   9 H    1     2.5627     4.8429  66 O    0 0 0

  10 H    1     1.4444     2.7294 161 SI   0-1 0
  10 H    1     2.0375     3.8504  40 O    0 0 0
  10 H    1     2.0487     3.8716   8 H    0 0 0
  10 H    1     2.3656     4.4704  61 O    0 0 0
  10 H    1     2.4441     4.6187  51 O    0 0 0
  10 H    1     2.4568     4.6426  60 O    0-1 0

  11 H    1     0.9713     1.8355  18 O    0 0 0
  11 H    1     2.2895     4.3266 134 SI   0 0 0
  11 H    1     2.4300     4.5920  33 O    0 0 0
  11 H    1     2.4704     4.6684  48 O    0 0 0
  11 H    1     2.8443     5.3750  56 O    0 0 0
  11 H    1     2.8555     5.3961 155 SI   0 0 0

  12 H    1     1.4631     2.7648 146 SI   0 0 0
  12 H    1     2.1727     4.1057  13 H    0 0 0
  12 H    1     2.2116     4.1794  26 O    0 0 0
  12 H    1     2.3840     4.5052  44 O    1 0 0
  12 H    1     2.5325     4.7857  58 O    0 0 0
  12 H    1     2.5859     4.8866  14 O    1 0 0

  13 H    1     0.9684     1.8300  58 O    0 0 0
  13 H    1     2.0892     3.9480  49 O    0 0 0
  13 H    1     2.1381     4.0404 158 SI   0 0 0
  13 H    1     2.1727     4.1057  12 H    0 0 0
  13 H    1     2.4221     4.5772  39 O    0 0 0
  13 H    1     2.5645     4.8461 148 SI   0 0 0

  14 O    1     1.6747     3.1647 146 SI  -1 0 0
  14 O    1     1.6997     3.2119 141 SI  -1 0 0
  14 O    1     2.3181     4.3806   5 H    0 0 0
  14 O    1     2.5326     4.7859  55 O   -1 0 0
  14 O    1     2.5859     4.8866  12 H   -1 0 0
  14 O    1     2.6596     5.0260  44 O    0 0 0

  15 O    1     1.6343     3.0885 143 SI   0 0 0
  15 O    1     1.7215     3.2531 135 SI   0 0 0
  15 O    1     2.3400     4.4220   6 H    1 0 0
  15 O    1     2.6916     5.0863  17 O    0 1 0
  15 O    1     2.7009     5.1039  31 O    0 0 0
  15 O    1     2.7437     5.1849  69 O    0 0 0

  16 O    1     1.8479     3.4920 140 SI   0 0 0
  16 O    1     1.8603     3.5154 126 SI   0 0 0
  16 O    1     2.0399     3.8548 134 SI   0 0 0
  16 O    1     2.3199     4.3840  25 O    0 0 0
  16 O    1     2.5826     4.8805  23 O    0 0 0
  16 O    1     2.7996     5.2904 142 SI   0 0 0

  17 O    1     1.6355     3.0907 143 SI   0-1 0
  17 O    1     1.6484     3.1151 138 SI   0 0 0
  17 O    1     2.3076     4.3607   6 H    1-1 0
  17 O    1     2.6262     4.9628  26 O    0 0 0
  17 O    1     2.6502     5.0082  27 O    0 0 0
  17 O    1     2.6916     5.0863  15 O    0-1 0

  18 O    1     0.9713     1.8355  11 H    0 0 0
  18 O    1     1.5490     2.9271 134 SI   0 0 0
  18 O    1     2.6669     5.0398  68 O    0 0 0
  18 O    1     2.9159     5.5103  16 O    0 0 0
  18 O    1     3.0024     5.6737  23 O    0 0 0
  18 O    1     3.0978     5.8539  48 O    0 0 0

  19 O    1     1.6511     3.1202 137 SI   0 0 0
  19 O    1     1.6672     3.1506 139 SI   0 0 0
  19 O    1     2.4237     4.5802   5 H    0 0 0
  19 O    1     2.5155     4.7537  50 O    0 0 0
  19 O    1     2.5758     4.8675  28 O    0 0 0
  19 O    1     2.9097     5.4985  27 O    0 0 0

  20 O    1     1.6577     3.1326 144 SI   0 0 0
  20 O    1     1.6803     3.1754 137 SI   0 0 0
  20 O    1     1.7968     3.3955   6 H    0-1 0
  20 O    1     2.5209     4.7637  40 O    0 0 0
  20 O    1     2.6878     5.0793  56 O    0-1 0
  20 O    1     2.8139     5.3174  35 O    0-1 0

  21 O    1     1.6354     3.0904 136 SI   0 0 0
  21 O    1     1.6580     3.1332 157 SI   0 0 0
  21 O    1     2.5765     4.8689  69 O    0 0 0
  21 O    1     2.6540     5.0153  67 O    0 0 0
  21 O    1     2.7048     5.1112  26 O    0 0 0
  21 O    1     2.8032     5.2974 141 SI   0 0 0

  22 O    1     1.5995     3.0226 135 SI   0 0 0
  22 O    1     2.1395     4.0431 153 SI   0 0 0
  22 O    1     2.6332     4.9759  47 O    0 0 0
  22 O    1     2.6845     5.0730  68 O    0 0 0
  22 O    1     2.6951     5.0930  31 O    0 0 0
  22 O    1     2.7479     5.1929  69 O    0 0 0

  23 O    1     1.6978     3.2085 126 SI   0 0 0
  23 O    1     1.8466     3.4895 142 SI   0 0 0
  23 O    1     1.9746     3.7315 141 SI  -1 0 0
  23 O    1     2.5489     4.8166   5 H    0 0 0
  23 O    1     2.5826     4.8805  16 O    0 0 0
  23 O    1     2.7975     5.2864 134 SI   0 0 0

  24 O    1     1.6303     3.0809 142 SI   0 0 0
  24 O    1     1.6797     3.1742 133 SI   0 0-1
  24 O    1     2.5782     4.8721   5 H    0 0 0
  24 O    1     3.0395     5.7438  23 O    0 0 0
  24 O    1     3.0497     5.7631 114 SI   0 0-1
  24 O    1     3.1596     5.9708  16 O    0 0 0

  25 O    1     1.7659     3.3372 140 SI   0 0 0
  25 O    1     1.8171     3.4337 126 SI   0 0 0
  25 O    1     2.0683     3.9085   6 H    0 0 0
  25 O    1     2.3199     4.3840  16 O    0 0 0
  25 O    1     2.3350     4.4125 143 SI  -1 0 0
  25 O    1     2.8615     5.4075 115 SI  -1 0-1

  26 O    1     1.5838     2.9929 138 SI   0 0 0
  26 O    1     2.2116     4.1794  12 H    0 0 0
  26 O    1     2.2955     4.3379 158 SI   0 0 0
  26 O    1     2.4510     4.6318 146 SI   0 0 0
  26 O    1     2.5622     4.8418  67 O    0 0 0
  26 O    1     2.6262     4.9628  17 O    0 0 0

  27 O    1     1.6337     3.0873 139 SI   0 0 0
  27 O    1     1.6405     3.1000 138 SI   0 0 0
  27 O    1     2.2327     4.2191   4 H    0 0 0
  27 O    1     2.4116     4.5572  29 O    0 0 0
  27 O    1     2.4835     4.6931  50 O    0 0 0
  27 O    1     2.5945     4.9030  28 O    0 0 0

  28 O    1     1.6305     3.0813 139 SI   0 0 0
  28 O    1     1.7120     3.2353 159 SI   0 0 0
  28 O    1     2.4712     4.6698  45 O    0 0 0
  28 O    1     2.5758     4.8675  19 O    0 0 0
  28 O    1     2.5815     4.8783  67 O    0 0 0
  28 O    1     2.5945     4.9030  27 O    0 0 0

  29 O    1     1.7532     3.3131 138 SI   0 0 0
  29 O    1     1.9226     3.6332 120 SI   0 0-1
  29 O    1     1.9502     3.6853 136 SI   0 0 0
  29 O    1     2.4116     4.5572  27 O    0 0 0
  29 O    1     2.7863     5.2654  17 O    0 0 0
  29 O    1     2.8129     5.3156  26 O    0 0 0

  30 O    1     1.6123     3.0469 145 SI   0 0 0
  30 O    1     1.6618     3.1403 152 SI   0 0 0
  30 O    1     2.3776     4.4929   1 H    0 0 0
  30 O    1     2.5469     4.8129  62 O    0 0 0
  30 O    1     2.5993     4.9119  65 O    0 1 0
  30 O    1     2.6303     4.9705  57 O    0 0 0

  31 O    1     1.6316     3.0832 150 SI   0 0 0
  31 O    1     1.6715     3.1586 135 SI   0 0 0
  31 O    1     2.6271     4.9646  47 O    0 0 0
  31 O    1     2.6319     4.9736  69 O    0 0 0
  31 O    1     2.6387     4.9865  39 O    0 1 0
  31 O    1     2.6951     5.0930  22 O    0 0 0

  32 O    1     1.6523     3.1224 145 SI   0 0 0
  32 O    1     1.6610     3.1389 150 SI   0 0 0
  32 O    1     2.4423     4.6153  47 O    0 0 0
  32 O    1     2.6032     4.9194  65 O    0 1 0
  32 O    1     2.6465     5.0012  30 O    0 0 0
  32 O    1     2.7087     5.1186  39 O    0 1 0

  33 O    1     1.6575     3.1322 155 SI   0 0 0
  33 O    1     1.7259     3.2615 147 SI   0 0 0
  33 O    1     2.4300     4.5920  11 H    0 0 0
  33 O    1     2.4862     4.6982   7 H   -1 0 0
  33 O    1     2.6152     4.9421  34 O    0 0 0
  33 O    1     2.6828     5.0698  60 O    0 0 0

  34 O    1     1.5855     2.9961 151 SI   0 0 0
  34 O    1     1.6945     3.2022 147 SI   0 0 0
  34 O    1     2.3791     4.4959   3 H    0 0 0
  34 O    1     2.6018     4.9166  48 O    0 0 0
  34 O    1     2.6152     4.9421  33 O    0 0 0
  34 O    1     2.6543     5.0159   7 H   -1 0 0

  35 O    1     1.6249     3.0705 144 SI   0 1 0
  35 O    1     1.7810     3.3655 153 SI   0 0 0
  35 O    1     2.3734     4.4852  50 O    0 1 0
  35 O    1     2.5403     4.8005  68 O    0 0 0
  35 O    1     2.5789     4.8735  56 O    0 0 0
  35 O    1     2.7000     5.1023  40 O    0 1 0

  36 O    1     1.6057     3.0343 148 SI   0 0 0
  36 O    1     1.6958     3.2045  79 SI   0 0 0
  36 O    1     2.5996     4.9126  49 O    0 0 0
  36 O    1     2.6863     5.0763  41 O    1 0 0
  36 O    1     2.8211     5.3311   3 H    1 0 0
  36 O    1     3.0713     5.8039  81 SI   0 0 0

  37 O    1     1.6404     3.1000  95 SI   0 0 0
  37 O    1     1.6826     3.1796 160 SI   0 0 0
  37 O    1     2.5235     4.7687   9 H    0 0 0
  37 O    1     2.5842     4.8833  61 O    0 0 0
  37 O    1     2.6796     5.0637  66 O    0 0 0
  37 O    1     2.7222     5.1443  63 O    0 0 0

  38 O    1     1.0059     1.9008   8 H    0 0 0
[...]
   8.6170816   8.5823363   8.5888749   8.4167763   8.6393410   8.7180508
   8.6279370   8.6206308   8.5557861   8.5501435   8.6071389   8.7194479
   8.8537185   8.8089314   8.6181802  13.3279840  13.3816916  14.0845595
  14.0142169  13.9988131  14.0025626  13.9915516  13.9950729  13.5226138
  13.6750602  14.1211704  13.9364762  14.0206656  14.0229515  13.9978624
  14.0168481  13.8014551  13.5779529  13.9739909  14.1176216  14.0326110
  14.0421519  13.9856876  13.9953879  13.1615706  13.2761777  14.0638535
  14.0995618  13.9732984  14.0067145  13.9956938  13.9849895  13.9839552
  14.0023038  13.9873958  14.0068325  13.9861422  14.0059202  13.9891809
  14.0062531  14.0192618  13.9998563  13.9666372  14.0595625  13.9943805
  14.0137318  13.9929241  14.0042278  14.0524860  14.0289987  13.4987085
  14.0602815  13.9770584  14.0363741  13.9833299  14.0921685  13.1605922
  13.8435554  13.9953844  14.0219703  13.9819686  14.0510657  14.0196181
  13.7073768  13.0726750  12.8496634  13.3556222  13.3070587  12.7139357
  12.7060951  13.5656401  13.2898674  13.0977650  13.1036281  12.7523076
  12.7079756  12.9269340  13.1011471  13.0840871  12.7450259  12.8165250
  12.8658898  12.8578061  12.7030394  12.7083390  12.8490484  12.6718122
  12.5993234  12.8573458  12.7519204  12.9657167  12.8846797
 SUMMED SPIN DENSITY           0.00000000
 TOTAL ATOMIC SPINS  :
   0.0000000   0.0000000   0.0000000   0.0000000   0.0000000   0.0000000
   0.0000000   0.0000000   0.0000000   0.0000000   0.0000000   0.0000000
   0.0000000   0.0000000   0.0000000   0.0000000   0.0000000   0.0000000
   0.0000000   0.0000000   0.0000000   0.0000000   0.0000000   0.0000000
   0.0000000   0.0000000   0.0000000   0.0000000   0.0000000   0.0000000
   0.0000000   0.0000000   0.0000000   0.0000000   0.0000000   0.0000000
   0.0000000   0.0000000   0.0000000   0.0000000   0.0000000   0.0000000
   0.0000000   0.0000000   0.0000000   0.0000000   0.0000000   0.0000000
   0.0000000   0.0000000   0.0000000   0.0000000   0.0000000   0.0000000
   0.0000000   0.0000000   0.0000000   0.0000000   0.0000000   0.0000000
   0.0000000   0.0000000   0.0000000   0.0000000   0.0000000   0.0000000
   0.0000000   0.0000000   0.0000000   0.0000000   0.0000000   0.0000000
   0.0000000   0.0000000   0.0000000   0.0000000   0.0000000   0.0000000
   0.0000000   0.0000000   0.0000000   0.0000000   0.0000000   0.0000000
   0.0000000   0.0000000   0.0000000   0.0000000   0.0000000   0.0000000
   0.0000000   0.0000000   0.0000000   0.0000000   0.0000000   0.0000000
   0.0000000   0.0000000   0.0000000   0.0000000   0.0000000   0.0000000
   0.0000000   0.0000000   0.0000000   0.0000000   0.0000000   0.0000000
   0.0000000   0.0000000   0.0000000   0.0000000   0.0000000   0.0000000
   0.0000000   0.0000000   0.0000000   0.0000000   0.0000000   0.0000000
   0.0000000   0.0000000   0.0000000   0.0000000   0.0000000   0.0000000
   0.0000000   0.0000000   0.0000000   0.0000000   0.0000000   0.0000000
   0.0000000   0.0000000   0.0000000   0.0000000   0.0000000   0.0000000
   0.0000000   0.0000000   0.0000000   0.0000000   0.0000000   0.0000000
   0.0000000   0.0000000   0.0000000   0.0000000   0.0000000   0.0000000
   0.0000000   0.0000000   0.0000000   0.0000000   0.0000000   0.0000000
   0.0000000   0.0000000   0.0000000   0.0000000   0.0000000
 TTTTTTTTTTTTTTTTTTTTTTTTTTTTTT MOQGAD      TELAPSE    13007.65 TCPU    12728.36
 WARNING **** GENBUD **** COUL. BIPO BUFFER TOO SMALL - TO AVOID I/O SET BIPOSIZE =     2144225
 TTTTTTTTTTTTTTTTTTTTTTTTTTTTTT SHELLX      TELAPSE    13095.35 TCPU    12814.60
 TTTTTTTTTTTTTTTTTTTTTTTTTTTTTT MONMO3      TELAPSE    13103.98 TCPU    12823.21
 NUMERICALLY INTEGRATED DENSITY    874.5003423136    874.5003423136
 TTTTTTTTTTTTTTTTTTTTTTTTTTTTTT NUMDFT      TELAPSE    13110.26 TCPU    12829.49
 CYC  58 ETOT(AU) -3.085205898078E+04 DETOT -1.67E-07 tst  1.62E-11 PX  5.40E-05
 TTTTTTTTTTTTTTTTTTTTTTTTTTTTTT FDIK        TELAPSE    13212.71 TCPU    12929.90
 POSSIBLY CONDUCTING STATE - EFERMI(AU) -1.1138699E-01 (RES. CHARGE  0.00E+00;IT.  0)
 TTTTTTTTTTTTTTTTTTTTTTTTTTTTTT PDIG        TELAPSE    13215.83 TCPU    12933.01
 CHARGE NORMALIZATION FACTOR   1.00000000
 TOTAL ATOMIC CHARGES:
   1.0422669   1.1078359   1.0172717   1.1515975   1.0744417   1.0749413
   1.1419821   0.6327698   1.2191942   1.1212985   0.6231412   1.1033268
   0.7126497   8.7063167   8.6627233   8.7535852   8.6404753   8.4349067
   8.6220715   8.6165669   8.6392928   8.6570958   8.8130598   8.5604865
   8.6903620   8.7625217   8.6406016   8.5998700   8.7963850   8.6016162
   8.5332245   8.6856306   8.5548413   8.4666960   8.6740864   8.5159685
   8.6768682   8.7681615   8.6204299   8.7058346   8.3890834   8.6442920
   8.5233161   8.5441172   8.6957902   8.5913729   8.6317820   8.6087160
   8.6350133   8.6952827   8.5604897   8.5450896   8.6643747   8.6854990
   8.6170873   8.5823445   8.5888759   8.4167753   8.6393540   8.7180566
   8.6279431   8.6206396   8.5557916   8.5501549   8.6071439   8.7194437
   8.8537195   8.8089277   8.6181852  13.3279925  13.3816748  14.0845603
  14.0142185  13.9988114  14.0025659  13.9915505  13.9950717  13.5226059
  13.6750549  14.1211673  13.9364705  14.0206770  14.0229589  13.9978583
  14.0168459  13.8014479  13.5779450  13.9739940  14.1176269  14.0326169
  14.0421562  13.9856914  13.9953872  13.1615598  13.2761614  14.0638586
  14.0995690  13.9732965  14.0067141  13.9956960  13.9849851  13.9839576
  14.0023044  13.9873971  14.0068330  13.9861437  14.0059194  13.9891840
  14.0062535  14.0192644  13.9998533  13.9666361  14.0595639  13.9943838
  14.0137321  13.9929240  14.0042281  14.0524929  14.0290019  13.4987084
  14.0602929  13.9770572  14.0363745  13.9833219  14.0921786  13.1605828
  13.8435524  13.9953816  14.0219668  13.9819647  14.0510635  14.0196266
  13.7073728  13.0726731  12.8496682  13.3556124  13.3070470  12.7139040
  12.7061024  13.5656551  13.2898548  13.0977525  13.1036163  12.7522872
  12.7079613  12.9269087  13.1011329  13.0840891  12.7450197  12.8165077
  12.8658968  12.8578024  12.7030495  12.7083423  12.8490277  12.6717856
  12.5992984  12.8573506  12.7519265  12.9656970  12.8846655
 SUMMED SPIN DENSITY           0.00000000
 TOTAL ATOMIC SPINS  :
   0.0000000   0.0000000   0.0000000   0.0000000   0.0000000   0.0000000
   0.0000000   0.0000000   0.0000000   0.0000000   0.0000000   0.0000000
   0.0000000   0.0000000   0.0000000   0.0000000   0.0000000   0.0000000
   0.0000000   0.0000000   0.0000000   0.0000000   0.0000000   0.0000000
   0.0000000   0.0000000   0.0000000   0.0000000   0.0000000   0.0000000
   0.0000000   0.0000000   0.0000000   0.0000000   0.0000000   0.0000000
   0.0000000   0.0000000   0.0000000   0.0000000   0.0000000   0.0000000
   0.0000000   0.0000000   0.0000000   0.0000000   0.0000000   0.0000000
   0.0000000   0.0000000   0.0000000   0.0000000   0.0000000   0.0000000
   0.0000000   0.0000000   0.0000000   0.0000000   0.0000000   0.0000000
   0.0000000   0.0000000   0.0000000   0.0000000   0.0000000   0.0000000
   0.0000000   0.0000000   0.0000000   0.0000000   0.0000000   0.0000000
   0.0000000   0.0000000   0.0000000   0.0000000   0.0000000   0.0000000
   0.0000000   0.0000000   0.0000000   0.0000000   0.0000000   0.0000000
   0.0000000   0.0000000   0.0000000   0.0000000   0.0000000   0.0000000
   0.0000000   0.0000000   0.0000000   0.0000000   0.0000000   0.0000000
   0.0000000   0.0000000   0.0000000   0.0000000   0.0000000   0.0000000
   0.0000000   0.0000000   0.0000000   0.0000000   0.0000000   0.0000000
   0.0000000   0.0000000   0.0000000   0.0000000   0.0000000   0.0000000
   0.0000000   0.0000000   0.0000000   0.0000000   0.0000000   0.0000000
   0.0000000   0.0000000   0.0000000   0.0000000   0.0000000   0.0000000
   0.0000000   0.0000000   0.0000000   0.0000000   0.0000000   0.0000000
   0.0000000   0.0000000   0.0000000   0.0000000   0.0000000   0.0000000
   0.0000000   0.0000000   0.0000000   0.0000000   0.0000000   0.0000000
   0.0000000   0.0000000   0.0000000   0.0000000   0.0000000   0.0000000
   0.0000000   0.0000000   0.0000000   0.0000000   0.0000000   0.0000000
   0.0000000   0.0000000   0.0000000   0.0000000   0.0000000
 TTTTTTTTTTTTTTTTTTTTTTTTTTTTTT MOQGAD      TELAPSE    13215.96 TCPU    12933.14
 WARNING **** GENBUD **** COUL. BIPO BUFFER TOO SMALL - TO AVOID I/O SET BIPOSIZE =     2144225
 TTTTTTTTTTTTTTTTTTTTTTTTTTTTTT SHELLX      TELAPSE    13304.40 TCPU    13018.99
 TTTTTTTTTTTTTTTTTTTTTTTTTTTTTT MONMO3      TELAPSE    13312.95 TCPU    13027.53
 NUMERICALLY INTEGRATED DENSITY    874.5003423188    874.5003423188
 TTTTTTTTTTTTTTTTTTTTTTTTTTTTTT NUMDFT      TELAPSE    13319.36 TCPU    13033.92
 CYC  59 ETOT(AU) -3.085205898090E+04 DETOT -1.26E-07 tst  1.37E-11 PX  4.94E-05
 TTTTTTTTTTTTTTTTTTTTTTTTTTTTTT FDIK        TELAPSE    13429.33 TCPU    13140.88
 POSSIBLY CONDUCTING STATE - EFERMI(AU) -1.1138699E-01 (RES. CHARGE  0.00E+00;IT.  0)
 TTTTTTTTTTTTTTTTTTTTTTTTTTTTTT PDIG        TELAPSE    13432.46 TCPU    13144.00
 CHARGE NORMALIZATION FACTOR   1.00000000
 TOTAL ATOMIC CHARGES:
   1.0422689   1.1078412   1.0172758   1.1515935   1.0744400   1.0749435
   1.1419881   0.6327771   1.2192031   1.1212982   0.6231438   1.1033329
   0.7126545   8.7063259   8.6627288   8.7535783   8.6404836   8.4349053
   8.6220764   8.6165814   8.6393015   8.6570810   8.8130747   8.5604884
   8.6903584   8.7625388   8.6406025   8.5998685   8.7963955   8.6016220
   8.5332232   8.6856405   8.5548486   8.4667026   8.6740779   8.5159716
   8.6768728   8.7681755   8.6204367   8.7058480   8.3890817   8.6442968
   8.5233152   8.5441150   8.6957882   8.5913740   8.6317974   8.6087116
   8.6350097   8.6952789   8.5604963   8.5450879   8.6643708   8.6855039
   8.6170926   8.5823521   8.5888768   8.4167747   8.6393659   8.7180621
   8.6279491   8.6206479   8.5557968   8.5501657   8.6071486   8.7194403
   8.8537205   8.8089245   8.6181902  13.3280002  13.3816589  14.0845611
  14.0142199  13.9988099  14.0025689  13.9915495  13.9950705  13.5225983
  13.6750500  14.1211643  13.9364650  14.0206875  14.0229656  13.9978545
  14.0168440  13.8014412  13.5779376  13.9739968  14.1176318  14.0326222
  14.0421602  13.9856950  13.9953865  13.1615497  13.2761461  14.0638632
  14.0995755  13.9732947  14.0067138  13.9956980  13.9849810  13.9839600
  14.0023049  13.9873983  14.0068335  13.9861450  14.0059187  13.9891868
  14.0062539  14.0192669  13.9998505  13.9666350  14.0595650  13.9943869
  14.0137325  13.9929239  14.0042285  14.0524993  14.0290048  13.4987080
  14.0603034  13.9770562  14.0363749  13.9833146  14.0921879  13.1605741
  13.8435494  13.9953790  14.0219636  13.9819609  14.0510614  14.0196344
  13.7073690  13.0726712  12.8496720  13.3556032  13.3070361  12.7138746
  12.7061086  13.5656688  13.2898431  13.0977407  13.1036049  12.7522681
  12.7079476  12.9268848  13.1011194  13.0840905  12.7450132  12.8164914
  12.8659026  12.8577985  12.7030584  12.7083449  12.8490082  12.6717609
  12.5992751  12.8573546  12.7519313  12.9656782  12.8846519
 SUMMED SPIN DENSITY           0.00000000
 TOTAL ATOMIC SPINS  :
   0.0000000   0.0000000   0.0000000   0.0000000   0.0000000   0.0000000
   0.0000000   0.0000000   0.0000000   0.0000000   0.0000000   0.0000000
   0.0000000   0.0000000   0.0000000   0.0000000   0.0000000   0.0000000
   0.0000000   0.0000000   0.0000000   0.0000000   0.0000000   0.0000000
   0.0000000   0.0000000   0.0000000   0.0000000   0.0000000   0.0000000
   0.0000000   0.0000000   0.0000000   0.0000000   0.0000000   0.0000000
   0.0000000   0.0000000   0.0000000   0.0000000   0.0000000   0.0000000
   0.0000000   0.0000000   0.0000000   0.0000000   0.0000000   0.0000000
   0.0000000   0.0000000   0.0000000   0.0000000   0.0000000   0.0000000
   0.0000000   0.0000000   0.0000000   0.0000000   0.0000000   0.0000000
   0.0000000   0.0000000   0.0000000   0.0000000   0.0000000   0.0000000
   0.0000000   0.0000000   0.0000000   0.0000000   0.0000000   0.0000000
   0.0000000   0.0000000   0.0000000   0.0000000   0.0000000   0.0000000
   0.0000000   0.0000000   0.0000000   0.0000000   0.0000000   0.0000000
   0.0000000   0.0000000   0.0000000   0.0000000   0.0000000   0.0000000
   0.0000000   0.0000000   0.0000000   0.0000000   0.0000000   0.0000000
   0.0000000   0.0000000   0.0000000   0.0000000   0.0000000   0.0000000
   0.0000000   0.0000000   0.0000000   0.0000000   0.0000000   0.0000000
   0.0000000   0.0000000   0.0000000   0.0000000   0.0000000   0.0000000
   0.0000000   0.0000000   0.0000000   0.0000000   0.0000000   0.0000000
   0.0000000   0.0000000   0.0000000   0.0000000   0.0000000   0.0000000
   0.0000000   0.0000000   0.0000000   0.0000000   0.0000000   0.0000000
   0.0000000   0.0000000   0.0000000   0.0000000   0.0000000   0.0000000
   0.0000000   0.0000000   0.0000000   0.0000000   0.0000000   0.0000000
   0.0000000   0.0000000   0.0000000   0.0000000   0.0000000   0.0000000
   0.0000000   0.0000000   0.0000000   0.0000000   0.0000000   0.0000000
   0.0000000   0.0000000   0.0000000   0.0000000   0.0000000
 TTTTTTTTTTTTTTTTTTTTTTTTTTTTTT MOQGAD      TELAPSE    13432.60 TCPU    13144.15
 WARNING **** GENBUD **** COUL. BIPO BUFFER TOO SMALL - TO AVOID I/O SET BIPOSIZE =     2144225
 TTTTTTTTTTTTTTTTTTTTTTTTTTTTTT SHELLX      TELAPSE    13521.00 TCPU    13229.27
 TTTTTTTTTTTTTTTTTTTTTTTTTTTTTT MONMO3      TELAPSE    13531.98 TCPU    13240.24
 NUMERICALLY INTEGRATED DENSITY    874.5003423234    874.5003423234
 TTTTTTTTTTTTTTTTTTTTTTTTTTTTTT NUMDFT      TELAPSE    13538.11 TCPU    13246.37
 CYC  60 ETOT(AU) -3.085205898099E+04 DETOT -8.97E-08 tst  1.15E-11 PX  4.49E-05
 TTTTTTTTTTTTTTTTTTTTTTTTTTTTTT FDIK        TELAPSE    13651.09 TCPU    13355.91
 POSSIBLY CONDUCTING STATE - EFERMI(AU) -1.1138699E-01 (RES. CHARGE  0.00E+00;IT.  0)
 TTTTTTTTTTTTTTTTTTTTTTTTTTTTTT PDIG        TELAPSE    13654.20 TCPU    13359.03
 CHARGE NORMALIZATION FACTOR   1.00000000
 TOTAL ATOMIC CHARGES:
   1.0422711   1.1078463   1.0172798   1.1515899   1.0744387   1.0749458
   1.1419939   0.6327834   1.2192117   1.1212984   0.6231459   1.1033389
   0.7126587   8.7063346   8.6627342   8.7535721   8.6404913   8.4349043
   8.6220810   8.6165949   8.6393097   8.6570678   8.8130885   8.5604903
   8.6903552   8.7625549   8.6406037   8.5998674   8.7964051   8.6016276
   8.5332223   8.6856499   8.5548556   8.4667089   8.6740704   8.5159745
   8.6768772   8.7681884   8.6204432   8.7058604   8.3890804   8.6443014
   8.5233148   8.5441133   8.6957866   8.5913754   8.6318120   8.6087078
   8.6350067   8.6952757   8.5605026   8.5450867   8.6643673   8.6855088
   8.6170979   8.5823594   8.5888778   8.4167743   8.6393771   8.7180673
   8.6279548   8.6206558   8.5558018   8.5501757   8.6071532   8.7194376
   8.8537215   8.8089217   8.6181950  13.3280070  13.3816440  14.0845620
  14.0142212  13.9988084  14.0025716  13.9915486  13.9950694  13.5225913
  13.6750456  14.1211615  13.9364599  14.0206971  14.0229717  13.9978510
  14.0168421  13.8014348  13.5779308  13.9739994  14.1176365  14.0326272
  14.0421637  13.9856983  13.9953859  13.1615402  13.2761319  14.0638675
  14.0995815  13.9732931  14.0067134  13.9956998  13.9849773  13.9839621
  14.0023054  13.9873993  14.0068339  13.9861463  14.0059180  13.9891895
  14.0062542  14.0192690  13.9998480  13.9666341  14.0595660  13.9943897
  14.0137329  13.9929237  14.0042287  14.0525053  14.0290075  13.4987076
  14.0603132  13.9770552  14.0363752  13.9833077  14.0921967  13.1605661
  13.8435467  13.9953766  14.0219606  13.9819576  14.0510593  14.0196415
  13.7073653  13.0726694  12.8496749  13.3555946  13.3070259  12.7138471
  12.7061137  13.5656813  13.2898322  13.0977295  13.1035940  12.7522498
  12.7079343  12.9268624  13.1011064  13.0840915  12.7450068  12.8164757
  12.8659077  12.8577943  12.7030659  12.7083468  12.8489898  12.6717378
  12.5992530  12.8573578  12.7519351  12.9656602  12.8846389
 SUMMED SPIN DENSITY           0.00000000
 TOTAL ATOMIC SPINS  :
   0.0000000   0.0000000   0.0000000   0.0000000   0.0000000   0.0000000
   0.0000000   0.0000000   0.0000000   0.0000000   0.0000000   0.0000000
   0.0000000   0.0000000   0.0000000   0.0000000   0.0000000   0.0000000
   0.0000000   0.0000000   0.0000000   0.0000000   0.0000000   0.0000000
   0.0000000   0.0000000   0.0000000   0.0000000   0.0000000   0.0000000
   0.0000000   0.0000000   0.0000000   0.0000000   0.0000000   0.0000000
   0.0000000   0.0000000   0.0000000   0.0000000   0.0000000   0.0000000
   0.0000000   0.0000000   0.0000000   0.0000000   0.0000000   0.0000000
   0.0000000   0.0000000   0.0000000   0.0000000   0.0000000   0.0000000
   0.0000000   0.0000000   0.0000000   0.0000000   0.0000000   0.0000000
   0.0000000   0.0000000   0.0000000   0.0000000   0.0000000   0.0000000
   0.0000000   0.0000000   0.0000000   0.0000000   0.0000000   0.0000000
   0.0000000   0.0000000   0.0000000   0.0000000   0.0000000   0.0000000
   0.0000000   0.0000000   0.0000000   0.0000000   0.0000000   0.0000000
   0.0000000   0.0000000   0.0000000   0.0000000   0.0000000   0.0000000
   0.0000000   0.0000000   0.0000000   0.0000000   0.0000000   0.0000000
   0.0000000   0.0000000   0.0000000   0.0000000   0.0000000   0.0000000
   0.0000000   0.0000000   0.0000000   0.0000000   0.0000000   0.0000000
   0.0000000   0.0000000   0.0000000   0.0000000   0.0000000   0.0000000
   0.0000000   0.0000000   0.0000000   0.0000000   0.0000000   0.0000000
   0.0000000   0.0000000   0.0000000   0.0000000   0.0000000   0.0000000
   0.0000000   0.0000000   0.0000000   0.0000000   0.0000000   0.0000000
   0.0000000   0.0000000   0.0000000   0.0000000   0.0000000   0.0000000
   0.0000000   0.0000000   0.0000000   0.0000000   0.0000000   0.0000000
   0.0000000   0.0000000   0.0000000   0.0000000   0.0000000   0.0000000
   0.0000000   0.0000000   0.0000000   0.0000000   0.0000000   0.0000000
   0.0000000   0.0000000   0.0000000   0.0000000   0.0000000
 TTTTTTTTTTTTTTTTTTTTTTTTTTTTTT MOQGAD      TELAPSE    13654.39 TCPU    13359.22
 WARNING **** GENBUD **** COUL. BIPO BUFFER TOO SMALL - TO AVOID I/O SET BIPOSIZE =     2144225
 TTTTTTTTTTTTTTTTTTTTTTTTTTTTTT SHELLX      TELAPSE    13741.08 TCPU    13445.78
 +++ ENERGIES IN A.U. +++
 ::: EXT EL-POLE                                  -4.2866200873249E+04
 ::: EXT EL-SPHEROPOLE                             3.1348011757428E+02
 ::: BIELET ZONE E-E                               5.2286315559167E+04
 ::: TOTAL E-E                                     9.7335948034928E+03
 ::: TOTAL E-N + N-E                              -6.3981348890484E+04
 ::: TOTAL N-N                                    -5.0574535598130E+03
 ::: KINETIC ENERGY                                3.0745625441526E+04
 ::: PSEUDO TOTAL   ENERGY                        -2.8559582205278E+04
 ::: VIRIAL COEFFICIENT                            1.0368608984436E+00
 TTTTTTTTTTTTTTTTTTTTTTTTTTTTTT MONMO3      TELAPSE    13750.55 TCPU    13455.21
 NUMERICALLY INTEGRATED DENSITY    874.5003423277    874.5003423277
 TTTTTTTTTTTTTTTTTTTTTTTTTTTTTT NUMDFT      TELAPSE    13757.15 TCPU    13461.79
 CYC  61 ETOT(AU) -3.085205898106E+04 DETOT -6.26E-08 tst  9.73E-12 PX  4.49E-05

 == SCF ENDED - CONVERGENCE ON ENERGY      E(AU) -3.0852058981055E+04 CYCLES  61


 ENERGY EXPRESSION=HARTREE+FOCK EXCH*0.05000+(BECKE  EXCH)*0.95000+LYP    CORR

 FINITE TEMPERATURE DFT CALCULATION 
 TEMPERATURE      (T)    1.000000000000E-13 HARTREE 
 ENERGY           (E)   -3.085205898106E+04
 FREE ENERGY      (F)   -3.085205898106E+04
 ELECTRON ENTROPY (S)    0.000000000000E+00
 (E(T)+F(T))/2    (E0)  -3.085205898106E+04


 TOTAL ENERGY(DFT)(AU)( 61) -3.0852058981055E+04 DE-6.3E-08 tester 9.7E-12
 TTTTTTTTTTTTTTTTTTTTTTTTTTTTTT EDFT        TELAPSE    13757.46 TCPU    13462.09
 EIGENVECTORS IN FORTRAN UNIT 10
 TTTTTTTTTTTTTTTTTTTTTTTTTTTTTT END         TELAPSE    13804.21 TCPU    13508.75
 EEEEEEEEEE TERMINATION  DATE 01 09 2014 TIME 23:34:53.7
NODE    0 CPU TIME =     13508.748
    TOTAL CPU TIME =   2602600.700
