--------------------------------------------------------------------------
WARNING: Open MPI will create a shared memory backing file in a
directory that appears to be mounted on a network filesystem.
Creating the shared memory backup file on a network file system, such
as NFS or Lustre is not recommended -- it may cause excessive network
traffic to your file servers and/or cause shared memory traffic in
Open MPI to be much slower than expected.

You may want to check what the typical temporary directory is on your
node.  Possible sources of the location of this temporary directory
include the $TEMPDIR, $TEMP, and $TMP environment variables.

Note, too, that system administrators can set a list of filesystems
where Open MPI is disallowed from creating temporary files by settings
the MCA parameter "orte_no_session_dir".

  Local host: r2i1n14
  Fileame:    /ichec/work/scratch/tmp/580169/openmpi-sessions-emehes@r2i1n14_0/5223/1/shared_mem_pool.r2i1n14

You can set the MCA paramter shmem_mmap_enable_nfs_warning to 0 to
disable this message.
--------------------------------------------------------------------------
         144 PROCESSORS WORKING

         
 *******************************************************************************
 *                                                                             *
 *                                CRYSTAL09                                    *
 *                              public : 2.0                                   *
 *                      December 10th, 2012 - parallel executable              *
 *                                                                             *
 *                                                                             *
 *                                                                             *
 *                              MAIN AUTHORS                                   *
 *                                                                             *
 *    R. DOVESI(1,10), V.R. SAUNDERS(2), C. ROETTI(1,10), R. ORLANDO (1,3),    *
 *  C.M. ZICOVICH-WILSON(1,4), F. PASCALE(5), B. CIVALLERI(1,10), K. DOLL(6),  *
 *       N.M. HARRISON(2,7), I. J. BUSH(2), Ph. D'ARCO(8), M. LLUNELL(9)       *
 *                                                                             *
 * (1) THEORETICAL CHEMISTRY GROUP - UNIVERSITA' DI TORINO - TORINO (ITALY)    *
 *      http://www.crystal.unito.it                                            *
 * (2) COMPUTATIONAL SCIENCE & ENGINEERING DEPARTMENT - STFC DARESBURY LABORATO*Y (UK)
 *     http://www.cse.stfc.ac.uk/cmg/CRYSTAL/                                  *
 * (3) UNIVERSITA' DEL PIEMONTE ORIENTALE - ALESSANDRIA (ITALY)                *
 * (4) UNIVERSIDAD AUTONOMA DEL ESTADO DE MORELOS - CUERNAVACA (MEXICO)        *
 * (5) UNIVERSITE' HENRI POINCARE' - NANCY (FRANCE)                            *
 * (6) MPI FUER FESTKOERPERFORSCHUNG - STUTTGART (GERMANY)                     *
 * (7) IMPERIAL COLLEGE - LONDON (UK)                                          *
 * (8) UNIVERSITE' PIERRE ET MARIE CURIE - PARIS (FRANCE)                      *
 * (9) UNIVERSIDAD DE BARCELONA - BARCELONA (SPAIN)                            *
 *(10) NIS - NANOSTRUCTURED INTERFACES AND SURFACES - TORINO (ITALY)           *
 *     http://www.crystal.unito.it                                             *
 *******************************************************************************
 EEEEEEEEEE STARTING  DATE 21 07 2015 TIME 21:18:58.3
 Created with astools                                                            

 CRYSTAL CALCULATION
 (INPUT ACCORDING TO THE INTERNATIONAL TABLES FOR X-RAY CRYSTALLOGRAPHY)
 CRYSTAL FAMILY                       :  TRICLINIC   
 CRYSTAL CLASS  (GROTH - 1921)        :  TRICLINIC PEDIAL                     

 SPACE GROUP (NONCENTROSYMMETRIC)     :  P 1             

 LATTICE PARAMETERS  (ANGSTROMS AND DEGREES) - CONVENTIONAL CELL
        A           B           C        ALPHA        BETA       GAMMA
    10.23220     9.97141    10.17550    90.00000    90.00000    90.00000


 NUMBER OF IRREDUCIBLE ATOMS IN THE CONVENTIONAL CELL:   96

 INPUT COORDINATES

 ATOM AT. N.              COORDINATES
   1   8     5.392060000000E-01  5.688890000000E-01  5.364840000000E-01
   2   8     8.421940000000E-01  2.045700000000E-01  8.557530000000E-01
   3   8     7.535360000000E-01  1.974410000000E-01  3.310200000000E-01
   4   8     5.872650000000E-01  2.005840000000E-01  8.876670000000E-01
   5   8     4.595000000000E-01  1.675500000000E-02  7.733180000000E-01
   6   8     2.206170000000E-01  3.863380000000E-01  4.729380000000E-01
   7   8     4.189000000000E-01  8.167650000000E-01  6.419390000000E-01
   8   8     6.740610000000E-01  7.473640000000E-01  9.620750000000E-01
   9   8     1.964390000000E-01  6.054300000000E-02  7.960260000000E-01
  10   8     3.784560000000E-01  4.864990000000E-01  6.851690000000E-01
  11   8     2.518660000000E-01  5.379160000000E-01  8.861090000000E-01
  12   8     7.255000000000E-02  2.771220000000E-01  9.660600000000E-01
  13   8     9.320400000000E-01  3.208270000000E-01  6.632780000000E-01
  14   8     9.703600000000E-01  3.023050000000E-01  4.360420000000E-01
  15   8     1.581560000000E-01  3.501410000000E-01  7.575950000000E-01
  16   8     5.531030000000E-01  2.614400000000E-01  4.724040000000E-01
  17   8     9.540830000000E-01  1.386900000000E-02  6.988010000000E-01
  18   8     9.183940000000E-01  1.016595000000E+00  4.252730000000E-01
  19   8     2.958460000000E-01  7.433000000000E-01  4.256170000000E-01
  20   8     6.604770000000E-01  7.351190000000E-01  6.931500000000E-01
  21   8     8.790970000000E-01  4.412580000000E-01  9.914160000000E-01
  22   8     6.135920000000E-01  9.728520000000E-01  5.287190000000E-01
  23   8     7.896840000000E-01  1.517860000000E-01  9.229400000000E-02
  24   8     7.104920000000E-01  9.812500000000E-01  7.711890000000E-01
  25   8     3.270460000000E-01  2.016700000000E-01  9.842050000000E-01
  26   8     1.556880000000E-01  1.416740000000E-01  5.780920000000E-01
  27   8    -8.038000000000E-03  7.696050000000E-01  2.993920000000E-01
  28   8     7.410300000000E-01  5.448050000000E-01  8.291420000000E-01
  29   8     5.062360000000E-01  6.190720000000E-01  1.174070000000E-01
  30   8     9.060960000000E-01  7.851030000000E-01  8.508880000000E-01
  31   8     2.360360000000E-01  7.130790000000E-01  1.757950000000E-01
  32   8     1.889160000000E-01  9.588860000000E-01  1.338520000000E-01
  33   8     4.366050000000E-01  1.633200000000E-02  2.029690000000E-01
  34   8     1.545630000000E-01  9.483110000000E-01  3.884690000000E-01
  35   8     8.878190000000E-01  9.004250000000E-01  9.837600000000E-02
  36   8     6.747300000000E-01  3.976810000000E-01  8.649300000000E-02
  37   8     4.011440000000E-01  2.298910000000E-01  6.689210000000E-01
  38   8     9.969010000000E-01  1.463100000000E-01  2.121210000000E-01
  39   8     4.390510000000E-01  8.382270000000E-01  1.929700000000E-02
  40   8     6.495450000000E-01  3.561190000000E-01  6.918940000000E-01
  41   8     5.034080000000E-01  4.345050000000E-01  8.956280000000E-01
  42   8     4.932000000000E-02  5.673630000000E-01  4.049860000000E-01
  43   8     4.963600000000E-01  7.904170000000E-01  3.107030000000E-01
  44   8     6.279880000000E-01  9.727960000000E-01  4.070000000000E-03
  45   8     2.078820000000E-01  7.788750000000E-01  8.907060000000E-01
  46   8     2.073860000000E-01  2.376670000000E-01  2.619630000000E-01
  47   8     8.496950000000E-01  5.270410000000E-01  5.473530000000E-01
  48   8     2.988270000000E-01  4.572680000000E-01  1.119990000000E-01
  49   8     7.684850000000E-01  6.709250000000E-01  1.808370000000E-01
  50   8     7.627530000000E-01  1.494010000000E-01  5.904960000000E-01
  51   8     3.884450000000E-01  2.825400000000E-02  4.438000000000E-01
  52   8     4.070600000000E-01  4.583030000000E-01  3.313180000000E-01
  53   8     2.390400000000E-02  6.406790000000E-01  2.739600000000E-02
  54   8    -5.253000000000E-03  5.485840000000E-01  7.631570000000E-01
  55   8     7.690020000000E-01  4.480750000000E-01  3.314790000000E-01
  56   8     6.664970000000E-01  9.589100000000E-01  2.593510000000E-01
  57   8     1.648470000000E-01  6.128780000000E-01  6.061480000000E-01
  58   8     1.837140000000E-01  8.581320000000E-01  6.470980000000E-01
  59   8     7.366760000000E-01  7.621100000000E-01  4.442280000000E-01
  60   8     1.731300000000E-02  3.601700000000E-02  9.434460000000E-01
  61   8     9.403650000000E-01  7.855710000000E-01  5.785250000000E-01
  62   8     5.219980000000E-01  2.322550000000E-01  1.892980000000E-01
  63   8     4.532750000000E-01  6.800030000000E-01  8.376810000000E-01
  64   8     1.576100000000E-02  4.219490000000E-01  1.983430000000E-01
  65 272     3.453330000000E-01  3.376310000000E-01  8.252810000000E-01
  66 272     4.852680000000E-01  4.301040000000E-01  1.618640000000E-01
  67 272     8.427300000000E-01  2.725500000000E-02  2.465300000000E-01
  68 272     8.162720000000E-01  2.849200000000E-02  9.411830000000E-01
  69 272     5.695400000000E-02  4.454420000000E-01  5.766730000000E-01
  70 272     5.978060000000E-01  8.074810000000E-01  1.372390000000E-01
  71 272     6.981000000000E-02  4.685010000000E-01  9.193470000000E-01
  72 272     5.979420000000E-01  1.486660000000E-01  6.943450000000E-01
  73 272     7.411200000000E-02  9.006390000000E-01  8.075160000000E-01
  74 272     5.435330000000E-01  7.703760000000E-01  4.945300000000E-01
  75 272     1.147350000000E-01  7.594600000000E-01  4.709210000000E-01
  76 272     7.175940000000E-01  3.548120000000E-01  8.980140000000E-01
  77 272     3.426240000000E-01  6.586610000000E-01  2.059200000000E-02
  78 272     8.508380000000E-01  6.298850000000E-01  3.601800000000E-01
  79 272     1.857340000000E-01  4.412960000000E-01  2.814670000000E-01
  80 272     2.849200000000E-01  6.928360000000E-01  7.279950000000E-01
  81 272     5.640810000000E-01  5.516410000000E-01  7.347740000000E-01
  82 272     5.599530000000E-01  8.554530000000E-01  8.379840000000E-01
  83 272     8.393470000000E-01  3.305680000000E-01  1.885250000000E-01
  84 272     8.094350000000E-01  9.546190000000E-01  5.725330000000E-01
  85 272     3.152160000000E-01  8.910170000000E-01  2.941190000000E-01
  86 272     4.166610000000E-01  3.973770000000E-01  5.130200000000E-01
  87 272     2.985900000000E-02  1.883220000000E-01  7.716200000000E-01
  88 272     7.862110000000E-01  3.241330000000E-01  5.053350000000E-01
  89 272     8.641400000000E-02  1.437730000000E-01  4.030950000000E-01
  90 272     8.517920000000E-01  6.610930000000E-01  6.964530000000E-01
  91 272     8.277110000000E-01  6.396620000000E-01  9.992270000000E-01
  92 272     6.564500000000E-02  8.025690000000E-01  1.292400000000E-01
  93 272     5.517760000000E-01  9.809900000000E-02  3.498150000000E-01
  94 272     3.093200000000E-01  2.274900000000E-02  6.377450000000E-01
  95 272     1.501440000000E-01  1.495410000000E-01  8.896600000000E-02
  96 272     4.902350000000E-01  1.129840000000E-01  4.113000000000E-02

 *******************************************************************************

 << INFORMATION >>: FROM NOW ON, ALL COORDINATES REFER TO THE PRIMITIVE CELL

 *******************************************************************************

 LATTICE PARAMETERS  (ANGSTROMS AND DEGREES) - PRIMITIVE CELL
       A          B          C         ALPHA     BETA     GAMMA        VOLUME
   10.23220    9.97141   10.17550    90.00000  90.00000  90.00000   1038.200784

 COORDINATES OF THE EQUIVALENT ATOMS (FRACTIONAL UNITS)

 N. ATOM EQUIV AT. N.          X                  Y                  Z

   1   1   1    8 O    -4.60794000000E-01 -4.31111000000E-01 -4.63516000000E-01

   2   2   1    8 O    -1.57806000000E-01  2.04570000000E-01 -1.44247000000E-01

   3   3   1    8 O    -2.46464000000E-01  1.97441000000E-01  3.31020000000E-01

   4   4   1    8 O    -4.12735000000E-01  2.00584000000E-01 -1.12333000000E-01

   5   5   1    8 O     4.59500000000E-01  1.67550000000E-02 -2.26682000000E-01

   6   6   1    8 O     2.20617000000E-01  3.86338000000E-01  4.72938000000E-01

   7   7   1    8 O     4.18900000000E-01 -1.83235000000E-01 -3.58061000000E-01

   8   8   1    8 O    -3.25939000000E-01 -2.52636000000E-01 -3.79250000000E-02

   9   9   1    8 O     1.96439000000E-01  6.05430000000E-02 -2.03974000000E-01

  10  10   1    8 O     3.78456000000E-01  4.86499000000E-01 -3.14831000000E-01

  11  11   1    8 O     2.51866000000E-01 -4.62084000000E-01 -1.13891000000E-01

  12  12   1    8 O     7.25500000000E-02  2.77122000000E-01 -3.39400000000E-02

  13  13   1    8 O    -6.79600000000E-02  3.20827000000E-01 -3.36722000000E-01

  14  14   1    8 O    -2.96400000000E-02  3.02305000000E-01  4.36042000000E-01

  15  15   1    8 O     1.58156000000E-01  3.50141000000E-01 -2.42405000000E-01

  16  16   1    8 O    -4.46897000000E-01  2.61440000000E-01  4.72404000000E-01

  17  17   1    8 O    -4.59170000000E-02  1.38690000000E-02 -3.01199000000E-01

  18  18   1    8 O    -8.16060000000E-02  1.65950000000E-02  4.25273000000E-01

  19  19   1    8 O     2.95846000000E-01 -2.56700000000E-01  4.25617000000E-01

  20  20   1    8 O    -3.39523000000E-01 -2.64881000000E-01 -3.06850000000E-01

  21  21   1    8 O    -1.20903000000E-01  4.41258000000E-01 -8.58400000000E-03

  22  22   1    8 O    -3.86408000000E-01 -2.71480000000E-02 -4.71281000000E-01

  23  23   1    8 O    -2.10316000000E-01  1.51786000000E-01  9.22940000000E-02

  24  24   1    8 O    -2.89508000000E-01 -1.87500000000E-02 -2.28811000000E-01

  25  25   1    8 O     3.27046000000E-01  2.01670000000E-01 -1.57950000000E-02

  26  26   1    8 O     1.55688000000E-01  1.41674000000E-01 -4.21908000000E-01

  27  27   1    8 O    -8.03800000000E-03 -2.30395000000E-01  2.99392000000E-01

  28  28   1    8 O    -2.58970000000E-01 -4.55195000000E-01 -1.70858000000E-01

  29  29   1    8 O    -4.93764000000E-01 -3.80928000000E-01  1.17407000000E-01

  30  30   1    8 O    -9.39040000000E-02 -2.14897000000E-01 -1.49112000000E-01

  31  31   1    8 O     2.36036000000E-01 -2.86921000000E-01  1.75795000000E-01

  32  32   1    8 O     1.88916000000E-01 -4.11140000000E-02  1.33852000000E-01

  33  33   1    8 O     4.36605000000E-01  1.63320000000E-02  2.02969000000E-01

  34  34   1    8 O     1.54563000000E-01 -5.16890000000E-02  3.88469000000E-01

  35  35   1    8 O    -1.12181000000E-01 -9.95750000000E-02  9.83760000000E-02

  36  36   1    8 O    -3.25270000000E-01  3.97681000000E-01  8.64930000000E-02

  37  37   1    8 O     4.01144000000E-01  2.29891000000E-01 -3.31079000000E-01

  38  38   1    8 O    -3.09900000000E-03  1.46310000000E-01  2.12121000000E-01

  39  39   1    8 O     4.39051000000E-01 -1.61773000000E-01  1.92970000000E-02

  40  40   1    8 O    -3.50455000000E-01  3.56119000000E-01 -3.08106000000E-01

  41  41   1    8 O    -4.96592000000E-01  4.34505000000E-01 -1.04372000000E-01

  42  42   1    8 O     4.93200000000E-02 -4.32637000000E-01  4.04986000000E-01

  43  43   1    8 O     4.96360000000E-01 -2.09583000000E-01  3.10703000000E-01

  44  44   1    8 O    -3.72012000000E-01 -2.72040000000E-02  4.07000000000E-03

  45  45   1    8 O     2.07882000000E-01 -2.21125000000E-01 -1.09294000000E-01

  46  46   1    8 O     2.07386000000E-01  2.37667000000E-01  2.61963000000E-01

  47  47   1    8 O    -1.50305000000E-01 -4.72959000000E-01 -4.52647000000E-01

  48  48   1    8 O     2.98827000000E-01  4.57268000000E-01  1.11999000000E-01

  49  49   1    8 O    -2.31515000000E-01 -3.29075000000E-01  1.80837000000E-01

  50  50   1    8 O    -2.37247000000E-01  1.49401000000E-01 -4.09504000000E-01

  51  51   1    8 O     3.88445000000E-01  2.82540000000E-02  4.43800000000E-01

  52  52   1    8 O     4.07060000000E-01  4.58303000000E-01  3.31318000000E-01

  53  53   1    8 O     2.39040000000E-02 -3.59321000000E-01  2.73960000000E-02

  54  54   1    8 O    -5.25300000000E-03 -4.51416000000E-01 -2.36843000000E-01

  55  55   1    8 O    -2.30998000000E-01  4.48075000000E-01  3.31479000000E-01

  56  56   1    8 O    -3.33503000000E-01 -4.10900000000E-02  2.59351000000E-01

  57  57   1    8 O     1.64847000000E-01 -3.87122000000E-01 -3.93852000000E-01

  58  58   1    8 O     1.83714000000E-01 -1.41868000000E-01 -3.52902000000E-01

  59  59   1    8 O    -2.63324000000E-01 -2.37890000000E-01  4.44228000000E-01

  60  60   1    8 O     1.73130000000E-02  3.60170000000E-02 -5.65540000000E-02

  61  61   1    8 O    -5.96350000000E-02 -2.14429000000E-01 -4.21475000000E-01

  62  62   1    8 O    -4.78002000000E-01  2.32255000000E-01  1.89298000000E-01

  63  63   1    8 O     4.53275000000E-01 -3.19997000000E-01 -1.62319000000E-01

  64  64   1    8 O     1.57610000000E-02  4.21949000000E-01  1.98343000000E-01

  65  65   1  272 HF    3.45333000000E-01  3.37631000000E-01 -1.74719000000E-01

  66  66   1  272 HF    4.85268000000E-01  4.30104000000E-01  1.61864000000E-01

  67  67   1  272 HF   -1.57270000000E-01  2.72550000000E-02  2.46530000000E-01

  68  68   1  272 HF   -1.83728000000E-01  2.84920000000E-02 -5.88170000000E-02

  69  69   1  272 HF    5.69540000000E-02  4.45442000000E-01 -4.23327000000E-01

  70  70   1  272 HF   -4.02194000000E-01 -1.92519000000E-01  1.37239000000E-01

  71  71   1  272 HF    6.98100000000E-02  4.68501000000E-01 -8.06530000000E-02

  72  72   1  272 HF   -4.02058000000E-01  1.48666000000E-01 -3.05655000000E-01

  73  73   1  272 HF    7.41120000000E-02 -9.93610000000E-02 -1.92484000000E-01

  74  74   1  272 HF   -4.56467000000E-01 -2.29624000000E-01  4.94530000000E-01

  75  75   1  272 HF    1.14735000000E-01 -2.40540000000E-01  4.70921000000E-01

  76  76   1  272 HF   -2.82406000000E-01  3.54812000000E-01 -1.01986000000E-01

  77  77   1  272 HF    3.42624000000E-01 -3.41339000000E-01  2.05920000000E-02

  78  78   1  272 HF   -1.49162000000E-01 -3.70115000000E-01  3.60180000000E-01

  79  79   1  272 HF    1.85734000000E-01  4.41296000000E-01  2.81467000000E-01

  80  80   1  272 HF    2.84920000000E-01 -3.07164000000E-01 -2.72005000000E-01

  81  81   1  272 HF   -4.35919000000E-01 -4.48359000000E-01 -2.65226000000E-01

  82  82   1  272 HF   -4.40047000000E-01 -1.44547000000E-01 -1.62016000000E-01

  83  83   1  272 HF   -1.60653000000E-01  3.30568000000E-01  1.88525000000E-01

  84  84   1  272 HF   -1.90565000000E-01 -4.53810000000E-02 -4.27467000000E-01

  85  85   1  272 HF    3.15216000000E-01 -1.08983000000E-01  2.94119000000E-01

  86  86   1  272 HF    4.16661000000E-01  3.97377000000E-01 -4.86980000000E-01

  87  87   1  272 HF    2.98590000000E-02  1.88322000000E-01 -2.28380000000E-01

  88  88   1  272 HF   -2.13789000000E-01  3.24133000000E-01 -4.94665000000E-01

  89  89   1  272 HF    8.64140000000E-02  1.43773000000E-01  4.03095000000E-01

  90  90   1  272 HF   -1.48208000000E-01 -3.38907000000E-01 -3.03547000000E-01

  91  91   1  272 HF   -1.72289000000E-01 -3.60338000000E-01 -7.73000000000E-04

  92  92   1  272 HF    6.56450000000E-02 -1.97431000000E-01  1.29240000000E-01

  93  93   1  272 HF   -4.48224000000E-01  9.80990000000E-02  3.49815000000E-01

  94  94   1  272 HF    3.09320000000E-01  2.27490000000E-02 -3.62255000000E-01

  95  95   1  272 HF    1.50144000000E-01  1.49541000000E-01  8.89660000000E-02

  96  96   1  272 HF    4.90235000000E-01  1.12984000000E-01  4.11300000000E-02

 NUMBER OF SYMMETRY OPERATORS         :    1
 *******************************************************************************
 * GEOMETRY EDITING - INPUT COORDINATES ARE GIVEN IN ANGSTROM         
 *******************************************************************************

 GCALCO - MAX INDICES DIRECT LATTICE VECTOR    14    15    15
 NO.OF VECTORS CREATED 6999 STARS 1050 RMAX   227.15178 BOHR

 GEOMETRY FOR WAVE FUNCTION - DIMENSIONALITY OF THE SYSTEM    3
 (NON PERIODIC DIRECTION: LATTICE PARAMETER FORMALLY SET TO 500)
 *******************************************************************************
 LATTICE PARAMETERS (ANGSTROMS AND DEGREES) - BOHR = 0.5291772083 ANGSTROM
 PRIMITIVE CELL - CENTRING CODE 1/0 VOLUME=  1038.200784 - DENSITY 10.847 g/cm^3
         A              B              C           ALPHA      BETA       GAMMA 
    10.23220000     9.97141000    10.17550000    90.000000  90.000000  90.000000
 *******************************************************************************
 ATOMS IN THE ASYMMETRIC UNIT   96 - ATOMS IN THE UNIT CELL:   96
     ATOM              X/A                 Y/B                 Z/C    
 *******************************************************************************
   1 T   8 O    -4.607940000000E-01 -4.311110000000E-01 -4.635160000000E-01
   2 T   8 O    -1.578060000000E-01  2.045700000000E-01 -1.442470000000E-01
   3 T   8 O    -2.464640000000E-01  1.974410000000E-01  3.310200000000E-01
   4 T   8 O    -4.127350000000E-01  2.005840000000E-01 -1.123330000000E-01
   5 T   8 O     4.595000000000E-01  1.675500000000E-02 -2.266820000000E-01
   6 T   8 O     2.206170000000E-01  3.863380000000E-01  4.729380000000E-01
   7 T   8 O     4.189000000000E-01 -1.832350000000E-01 -3.580610000000E-01
   8 T   8 O    -3.259390000000E-01 -2.526360000000E-01 -3.792500000000E-02
   9 T   8 O     1.964390000000E-01  6.054300000000E-02 -2.039740000000E-01
  10 T   8 O     3.784560000000E-01  4.864990000000E-01 -3.148310000000E-01
  11 T   8 O     2.518660000000E-01 -4.620840000000E-01 -1.138910000000E-01
  12 T   8 O     7.255000000000E-02  2.771220000000E-01 -3.394000000000E-02
  13 T   8 O    -6.796000000000E-02  3.208270000000E-01 -3.367220000000E-01
  14 T   8 O    -2.964000000000E-02  3.023050000000E-01  4.360420000000E-01
  15 T   8 O     1.581560000000E-01  3.501410000000E-01 -2.424050000000E-01
  16 T   8 O    -4.468970000000E-01  2.614400000000E-01  4.724040000000E-01
  17 T   8 O    -4.591700000000E-02  1.386900000000E-02 -3.011990000000E-01
  18 T   8 O    -8.160600000000E-02  1.659500000000E-02  4.252730000000E-01
  19 T   8 O     2.958460000000E-01 -2.567000000000E-01  4.256170000000E-01
  20 T   8 O    -3.395230000000E-01 -2.648810000000E-01 -3.068500000000E-01
  21 T   8 O    -1.209030000000E-01  4.412580000000E-01 -8.584000000000E-03
  22 T   8 O    -3.864080000000E-01 -2.714800000000E-02 -4.712810000000E-01
  23 T   8 O    -2.103160000000E-01  1.517860000000E-01  9.229400000000E-02
  24 T   8 O    -2.895080000000E-01 -1.875000000000E-02 -2.288110000000E-01
  25 T   8 O     3.270460000000E-01  2.016700000000E-01 -1.579500000000E-02
  26 T   8 O     1.556880000000E-01  1.416740000000E-01 -4.219080000000E-01
  27 T   8 O    -8.038000000000E-03 -2.303950000000E-01  2.993920000000E-01
  28 T   8 O    -2.589700000000E-01 -4.551950000000E-01 -1.708580000000E-01
  29 T   8 O    -4.937640000000E-01 -3.809280000000E-01  1.174070000000E-01
  30 T   8 O    -9.390400000000E-02 -2.148970000000E-01 -1.491120000000E-01
  31 T   8 O     2.360360000000E-01 -2.869210000000E-01  1.757950000000E-01
  32 T   8 O     1.889160000000E-01 -4.111400000000E-02  1.338520000000E-01
  33 T   8 O     4.366050000000E-01  1.633200000000E-02  2.029690000000E-01
  34 T   8 O     1.545630000000E-01 -5.168900000000E-02  3.884690000000E-01
  35 T   8 O    -1.121810000000E-01 -9.957500000000E-02  9.837600000000E-02
  36 T   8 O    -3.252700000000E-01  3.976810000000E-01  8.649300000000E-02
  37 T   8 O     4.011440000000E-01  2.298910000000E-01 -3.310790000000E-01
  38 T   8 O    -3.099000000000E-03  1.463100000000E-01  2.121210000000E-01
  39 T   8 O     4.390510000000E-01 -1.617730000000E-01  1.929700000000E-02
  40 T   8 O    -3.504550000000E-01  3.561190000000E-01 -3.081060000000E-01
  41 T   8 O    -4.965920000000E-01  4.345050000000E-01 -1.043720000000E-01
  42 T   8 O     4.932000000000E-02 -4.326370000000E-01  4.049860000000E-01
  43 T   8 O     4.963600000000E-01 -2.095830000000E-01  3.107030000000E-01
  44 T   8 O    -3.720120000000E-01 -2.720400000000E-02  4.070000000000E-03
  45 T   8 O     2.078820000000E-01 -2.211250000000E-01 -1.092940000000E-01
  46 T   8 O     2.073860000000E-01  2.376670000000E-01  2.619630000000E-01
  47 T   8 O    -1.503050000000E-01 -4.729590000000E-01 -4.526470000000E-01
  48 T   8 O     2.988270000000E-01  4.572680000000E-01  1.119990000000E-01
  49 T   8 O    -2.315150000000E-01 -3.290750000000E-01  1.808370000000E-01
  50 T   8 O    -2.372470000000E-01  1.494010000000E-01 -4.095040000000E-01
  51 T   8 O     3.884450000000E-01  2.825400000000E-02  4.438000000000E-01
  52 T   8 O     4.070600000000E-01  4.583030000000E-01  3.313180000000E-01
  53 T   8 O     2.390400000000E-02 -3.593210000000E-01  2.739600000000E-02
  54 T   8 O    -5.253000000000E-03 -4.514160000000E-01 -2.368430000000E-01
  55 T   8 O    -2.309980000000E-01  4.480750000000E-01  3.314790000000E-01
  56 T   8 O    -3.335030000000E-01 -4.109000000000E-02  2.593510000000E-01
  57 T   8 O     1.648470000000E-01 -3.871220000000E-01 -3.938520000000E-01
  58 T   8 O     1.837140000000E-01 -1.418680000000E-01 -3.529020000000E-01
  59 T   8 O    -2.633240000000E-01 -2.378900000000E-01  4.442280000000E-01
  60 T   8 O     1.731300000000E-02  3.601700000000E-02 -5.655400000000E-02
  61 T   8 O    -5.963500000000E-02 -2.144290000000E-01 -4.214750000000E-01
  62 T   8 O    -4.780020000000E-01  2.322550000000E-01  1.892980000000E-01
  63 T   8 O     4.532750000000E-01 -3.199970000000E-01 -1.623190000000E-01
  64 T   8 O     1.576100000000E-02  4.219490000000E-01  1.983430000000E-01
  65 T 272 HF    3.453330000000E-01  3.376310000000E-01 -1.747190000000E-01
  66 T 272 HF    4.852680000000E-01  4.301040000000E-01  1.618640000000E-01
  67 T 272 HF   -1.572700000000E-01  2.725500000000E-02  2.465300000000E-01
  68 T 272 HF   -1.837280000000E-01  2.849200000000E-02 -5.881700000000E-02
  69 T 272 HF    5.695400000000E-02  4.454420000000E-01 -4.233270000000E-01
  70 T 272 HF   -4.021940000000E-01 -1.925190000000E-01  1.372390000000E-01
  71 T 272 HF    6.981000000000E-02  4.685010000000E-01 -8.065300000000E-02
  72 T 272 HF   -4.020580000000E-01  1.486660000000E-01 -3.056550000000E-01
  73 T 272 HF    7.411200000000E-02 -9.936100000000E-02 -1.924840000000E-01
  74 T 272 HF   -4.564670000000E-01 -2.296240000000E-01  4.945300000000E-01
  75 T 272 HF    1.147350000000E-01 -2.405400000000E-01  4.709210000000E-01
  76 T 272 HF   -2.824060000000E-01  3.548120000000E-01 -1.019860000000E-01
  77 T 272 HF    3.426240000000E-01 -3.413390000000E-01  2.059200000000E-02
  78 T 272 HF   -1.491620000000E-01 -3.701150000000E-01  3.601800000000E-01
  79 T 272 HF    1.857340000000E-01  4.412960000000E-01  2.814670000000E-01
  80 T 272 HF    2.849200000000E-01 -3.071640000000E-01 -2.720050000000E-01
  81 T 272 HF   -4.359190000000E-01 -4.483590000000E-01 -2.652260000000E-01
  82 T 272 HF   -4.400470000000E-01 -1.445470000000E-01 -1.620160000000E-01
  83 T 272 HF   -1.606530000000E-01  3.305680000000E-01  1.885250000000E-01
  84 T 272 HF   -1.905650000000E-01 -4.538100000000E-02 -4.274670000000E-01
  85 T 272 HF    3.152160000000E-01 -1.089830000000E-01  2.941190000000E-01
  86 T 272 HF    4.166610000000E-01  3.973770000000E-01 -4.869800000000E-01
  87 T 272 HF    2.985900000000E-02  1.883220000000E-01 -2.283800000000E-01
  88 T 272 HF   -2.137890000000E-01  3.241330000000E-01 -4.946650000000E-01
  89 T 272 HF    8.641400000000E-02  1.437730000000E-01  4.030950000000E-01
  90 T 272 HF   -1.482080000000E-01 -3.389070000000E-01 -3.035470000000E-01
  91 T 272 HF   -1.722890000000E-01 -3.603380000000E-01 -7.730000000000E-04
  92 T 272 HF    6.564500000000E-02 -1.974310000000E-01  1.292400000000E-01
  93 T 272 HF   -4.482240000000E-01  9.809900000000E-02  3.498150000000E-01
  94 T 272 HF    3.093200000000E-01  2.274900000000E-02 -3.622550000000E-01
  95 T 272 HF    1.501440000000E-01  1.495410000000E-01  8.896600000000E-02
  96 T 272 HF    4.902350000000E-01  1.129840000000E-01  4.113000000000E-02

 T = ATOM BELONGING TO THE ASYMMETRIC UNIT

 ****   1 SYMMOPS - TRANSLATORS IN FRACTIONAL UNITS
  V INV                   ROTATION MATRICES                       TRANSLATOR
  1  1  1.00  0.00  0.00  0.00  1.00  0.00  0.00  0.00  1.00    0.00  0.00  0.00

 DIRECT LATTICE VECTORS CARTESIAN COMPONENTS (ANGSTROM)
          X                    Y                    Z
   0.102322000000E+02   0.626541548912E-15   0.000000000000E+00
   0.000000000000E+00   0.997141000000E+01   0.000000000000E+00
   0.623069675236E-15   0.623069675236E-15   0.101755000000E+02


 CARTESIAN COORDINATES - PRIMITIVE CELL
 *******************************************************************************
 *      ATOM          X(ANGSTROM)         Y(ANGSTROM)         Z(ANGSTROM)
 *******************************************************************************
   1     8 O    -4.714936366800E+00 -4.298784536510E+00 -4.716507058000E+00
   2     8 O    -1.614702553200E+00  2.039851343700E+00 -1.467785348500E+00
   3     8 O    -2.521868940800E+00  1.968765161810E+00  3.368294010000E+00
   4     8 O    -4.223187067000E+00  2.000105303440E+00 -1.143044441500E+00
   5     8 O     4.701695900000E+00  1.670709745500E-01 -2.306602691000E+00
   6     8 O     2.257397267400E+00  3.852334596580E+00  4.812380619000E+00
   7     8 O     4.286268580000E+00 -1.827111311350E+00 -3.643449705500E+00
   8     8 O    -3.335073035800E+00 -2.519137136760E+00 -3.859058375000E-01
   9     8 O     2.010003135800E+00  6.036990756300E-01 -2.075537437000E+00
  10     8 O     3.872437483200E+00  4.851080993590E+00 -3.203562840500E+00
  11     8 O     2.577143285200E+00 -4.607629018440E+00 -1.158897870500E+00
  12     8 O     7.423461100000E-01  2.763297082020E+00 -3.453564700000E-01
  13     8 O    -6.953803120000E-01  3.199097556070E+00 -3.426314711000E+00
  14     8 O    -3.032824080000E-01  3.014407100050E+00  4.436945371000E+00
  15     8 O     1.618283823200E+00  3.491399468810E+00 -2.466592077500E+00
  16     8 O    -4.572739483400E+00  2.606925430400E+00  4.806946902000E+00
  17     8 O    -4.698319274000E-01  1.382934852900E-01 -3.064850424500E+00
  18     8 O    -8.350089132000E-01  1.654755489500E-01  4.327365411500E+00
  19     8 O     3.027155441200E+00 -2.559660947000E+00  4.330865783500E+00
  20     8 O    -3.474067240600E+00 -2.641237052210E+00 -3.122352175000E+00
  21     8 O    -1.237103676600E+00  4.399964433780E+00 -8.734649200000E-02
  22     8 O    -3.953803937600E+00 -2.707038386800E-01 -4.795519815500E+00
  23     8 O    -2.151995375200E+00  1.513520438260E+00  9.391375970000E-01
  24     8 O    -2.962303757600E+00 -1.869639375000E-01 -2.328266330500E+00
  25     8 O     3.346400081200E+00  2.010934254700E+00 -1.607220225000E-01
  26     8 O     1.593030753600E+00  1.412689540340E+00 -4.293124854000E+00
  27     8 O    -8.224642360000E-02 -2.297363006950E+00  3.046463296000E+00
  28     8 O    -2.649832834000E+00 -4.538935974950E+00 -1.738565579000E+00
  29     8 O    -5.052292000800E+00 -3.798389268480E+00  1.194674928500E+00
  30     8 O    -9.608445088000E-01 -2.142826094770E+00 -1.517289156000E+00
  31     8 O     2.415167559200E+00 -2.861006928610E+00  1.788802022500E+00
  32     8 O     1.933026295200E+00 -4.099645507400E-01  1.362011026000E+00
  33     8 O     4.467429681000E+00  1.628530681200E-01  2.065311059500E+00
  34     8 O     1.581519528600E+00 -5.154122114900E-01  3.952866309500E+00
  35     8 O    -1.147858428200E+00 -9.929031507500E-01  1.001024988000E+00
  36     8 O    -3.328227694000E+00  3.965440300210E+00  8.801095215000E-01
  37     8 O     4.104585636800E+00  2.292337416310E+00 -3.368894364500E+00
  38     8 O    -3.170958780000E-02  1.458916997100E+00  2.158437235500E+00
  39     8 O     4.492457642200E+00 -1.613104909930E+00  1.963566235000E-01
  40     8 O    -3.585925651000E+00  3.551008557790E+00 -3.135132603000E+00
  41     8 O    -5.081228662400E+00  4.332627502050E+00 -1.062037286000E+00
  42     8 O     5.046521040000E-01 -4.314000908170E+00  4.120935043000E+00
  43     8 O     5.078854792000E+00 -2.089838022030E+00  3.161558376500E+00
  44     8 O    -3.806501186400E+00 -2.712622376400E-01  4.141428500000E-02
  45     8 O     2.127090200400E+00 -2.204928036250E+00 -1.112121097000E+00
  46     8 O     2.122015029200E+00  2.369875100470E+00  2.665604506500E+00
  47     8 O    -1.537950821000E+00 -4.716068102190E+00 -4.605909548500E+00
  48     8 O     3.057657629400E+00  4.559606707880E+00  1.139645824500E+00
  49     8 O    -2.368907783000E+00 -3.281341745750E+00  1.840106893500E+00
  50     8 O    -2.427558753400E+00  1.489738625410E+00 -4.166907952000E+00
  51     8 O     3.974646929000E+00  2.817322181400E-01  4.515886900000E+00
  52     8 O     4.165119332000E+00  4.569927117230E+00  3.371326309000E+00
  53     8 O     2.445905088000E-01 -3.582937012610E+00  2.787679980000E-01
  54     8 O    -5.374974660000E-02 -4.501254016560E+00 -2.409995946500E+00
  55     8 O    -2.363617735600E+00  4.467939535750E+00  3.372964564500E+00
  56     8 O    -3.412469396600E+00 -4.097252369000E-01  2.639026100500E+00
  57     8 O     1.686747473400E+00 -3.860152182020E+00 -4.007641026000E+00
  58     8 O     1.879798390800E+00 -1.414623993880E+00 -3.590954301000E+00
  59     8 O    -2.694383832800E+00 -2.372098724900E+00  4.520242014000E+00
  60     8 O     1.771500786000E-01  3.591402739700E-01 -5.754652270000E-01
  61     8 O    -6.101972470000E-01 -2.138159474890E+00 -4.288718862500E+00
  62     8 O    -4.891012064400E+00  2.315909829550E+00  1.926201799000E+00
  63     8 O     4.638000455000E+00 -3.190821285770E+00 -1.651676984500E+00
  64     8 O     1.612697042000E-01  4.207426478090E+00  2.018239196500E+00
  65   272 HF    3.533516322600E+00  3.366657129710E+00 -1.777853184500E+00
  66   272 HF    4.965359229600E+00  4.288743326640E+00  1.647047132000E+00
  67   272 HF   -1.609218094000E+00  2.717707795500E-01  2.508566015000E+00
  68   272 HF   -1.879941641600E+00  2.841054137200E-01 -5.984923835000E-01
  69   272 HF    5.827647188000E-01  4.441684813220E+00 -4.307563888500E+00
  70   272 HF   -4.115329446800E+00 -1.919685881790E+00  1.396475444500E+00
  71   272 HF    7.143098820000E-01  4.671615556410E+00 -8.206846015000E-01
  72   272 HF   -4.113937867600E+00  1.482409639060E+00 -3.110192452500E+00
  73   272 HF    7.583288064000E-01 -9.907692690100E-01 -1.958620942000E+00
  74   272 HF   -4.670661637400E+00 -2.289675049840E+00  5.032090015000E+00
  75   272 HF    1.173991467000E+00 -2.398522961400E+00  4.791856635500E+00
  76   272 HF   -2.889634673200E+00  3.537975924920E+00 -1.037758543000E+00
  77   272 HF    3.505797292800E+00 -3.403631117990E+00  2.095338960000E-01
  78   272 HF   -1.526255416400E+00 -3.690568412150E+00  3.665011590000E+00
  79   272 HF    1.900467434800E+00  4.400343347360E+00  2.864067458500E+00
  80   272 HF    2.915358424000E+00 -3.062858181240E+00 -2.767786877500E+00
  81   272 HF   -4.460410391800E+00 -4.470771416190E+00 -2.698807163000E+00
  82   272 HF   -4.502648913400E+00 -1.441337401270E+00 -1.648593808000E+00
  83   272 HF   -1.643833626600E+00  3.296229060880E+00  1.918336137500E+00
  84   272 HF   -1.949899193000E+00 -4.525125572100E-01 -4.349690458500E+00
  85   272 HF    3.225353155200E+00 -1.086714176030E+00  2.992807884500E+00
  86   272 HF    4.263358684200E+00  3.962408991570E+00 -4.955264990000E+00
  87   272 HF    3.055232598000E-01  1.877835874020E+00 -2.323880690000E+00
  88   272 HF   -2.187531805800E+00  3.232063037530E+00 -5.033463707500E+00
  89   272 HF    8.842053308000E-01  1.433619529930E+00  4.101693172500E+00
  90   272 HF   -1.516493897600E+00 -3.379380648870E+00 -3.088742498500E+00
  91   272 HF   -1.762895505800E+00 -3.593077936580E+00 -7.865661500000E-03
  92   272 HF    6.716927690000E-01 -1.968665447710E+00  1.315081620000E+00
  93   272 HF   -4.586317612800E+00  9.781853495900E-01  3.559542532500E+00
  94   272 HF    3.165024104000E+00  2.268396060900E-01 -3.686125752500E+00
  95   272 HF    1.536303436800E+00  1.491134622810E+00  9.052735330000E-01
  96   272 HF    5.016182567000E+00  1.126609787440E+00  4.185183150000E-01

 *******************************************************************************
 *** PSEUDOPOTENTIAL INFORMATION ***
 *******************************************************************************

 ATOMIC NUMBER  72, NUCLEAR CHARGE 12.000, HAY-WADT SMALL CORE  PSEUDOPOTENTIAL
   TYPE       EXPONENT      COEFF.    N      EXPONENT      COEFF.    N
  W0 TMS   685.5502931  -60.0000000  -1   151.8080485 -688.4980664   0
            38.0522099 -199.7748820   0    10.2057544  -77.2365121   0
             3.4376287  -14.6532596   0     0.8997539   -0.6762204   0
  P0 TMS   380.1096725    3.0000000  -2   724.6234505   31.3395532  -1
           281.4764603 1251.6866138   0    89.3590988  700.8900106   0
            22.9765773  266.0445845   0     3.6700035  465.0196155   0
             3.4703000 -369.5404568   0
  P1 TMS   228.3135771    2.0000000  -2    64.0878447   60.2776972  -1
            20.5139289  192.2174983   0     3.1643736  339.6460089   0
             2.9880924 -266.1066543   0
  P2 TMS   143.7102399    3.0000000  -2    63.1859170   54.6576760  -1
            32.0227449  217.5811427   0    10.7674922  125.1363084   0
             3.1003260   37.6203195   0
  P3 TMS    85.0395853    4.0000000  -2    41.8198820   49.6358393  -1
            19.6524967  178.4657222   0     6.0777120   82.0077173   0
             1.4776693    6.3063943   0

 *******************************************************************************
 LOCAL ATOMIC FUNCTIONS BASIS SET
 *******************************************************************************
   ATOM  X(AU)  Y(AU)  Z(AU)    NO. TYPE  EXPONENT  S COEF   P COEF   D/F/G COEF
 *******************************************************************************
   1 O  -8.910 -8.124 -8.913
                                  1 S  
                                         2.703E+04 2.173E-04 0.000E+00 0.000E+00
                                         4.052E+03 1.684E-03 0.000E+00 0.000E+00
                                         9.223E+02 8.740E-03 0.000E+00 0.000E+00
                                         2.612E+02 3.524E-02 0.000E+00 0.000E+00
                                         8.535E+01 1.115E-01 0.000E+00 0.000E+00
                                         3.104E+01 2.559E-01 0.000E+00 0.000E+00
                                  2 S  
                                         1.226E+01 3.977E-01 0.000E+00 0.000E+00
                                         4.999E+00 2.463E-01 0.000E+00 0.000E+00
                                  3 S  
                                         1.099E+00 1.000E+00 0.000E+00 0.000E+00
                                  4 S  
                                         3.566E-01 1.000E+00 0.000E+00 0.000E+00
                             5-   7 P  
                                         6.327E+01 0.000E+00 6.069E-03 0.000E+00
                                         1.463E+01 0.000E+00 4.191E-02 0.000E+00
                                         4.450E+00 0.000E+00 1.615E-01 0.000E+00
                                         1.528E+00 0.000E+00 3.571E-01 0.000E+00
                             8-  10 P  
                                         5.490E-01 0.000E+00 1.000E+00 0.000E+00
                            11-  13 P  
                                         1.859E-01 0.000E+00 1.000E+00 0.000E+00
                            14-  18 D  
                                         2.535E-01 0.000E+00 0.000E+00 1.000E+00
   2 O  -3.051  3.855 -2.774
   3 O  -4.766  3.720  6.365
   4 O  -7.981  3.780 -2.160
   5 O   8.885  0.316 -4.359
   6 O   4.266  7.280  9.094
   7 O   8.100 -3.453 -6.885
   8 O  -6.302 -4.760 -0.729
   9 O   3.798  1.141 -3.922
  10 O   7.318  9.167 -6.054
  11 O   4.870 -8.707 -2.190
  12 O   1.403  5.222 -0.653
  13 O  -1.314  6.045 -6.475
  14 O  -0.573  5.696  8.385
  15 O   3.058  6.598 -4.661
  16 O  -8.641  4.926  9.084
  17 O  -0.888  0.261 -5.792
  18 O  -1.578  0.313  8.178
  19 O   5.720 -4.837  8.184
  20 O  -6.565 -4.991 -5.900
  21 O  -2.338  8.315 -0.165
  22 O  -7.472 -0.512 -9.062
  23 O  -4.067  2.860  1.775
  24 O  -5.598 -0.353 -4.400
  25 O   6.324  3.800 -0.304
  26 O   3.010  2.670 -8.113
  27 O  -0.155 -4.341  5.757
  28 O  -5.007 -8.577 -3.285
  29 O  -9.547 -7.178  2.258
  30 O  -1.816 -4.049 -2.867
  31 O   4.564 -5.407  3.380
  32 O   3.653 -0.775  2.574
  33 O   8.442  0.308  3.903
  34 O   2.989 -0.974  7.470
  35 O  -2.169 -1.876  1.892
  36 O  -6.289  7.494  1.663
  37 O   7.757  4.332 -6.366
  38 O  -0.060  2.757  4.079
  39 O   8.490 -3.048  0.371
  40 O  -6.776  6.710 -5.925
  41 O  -9.602  8.187 -2.007
  42 O   0.954 -8.152  7.787
  43 O   9.598 -3.949  5.974
  44 O  -7.193 -0.513  0.078
  45 O   4.020 -4.167 -2.102
  46 O   4.010  4.478  5.037
  47 O  -2.906 -8.912 -8.704
  48 O   5.778  8.616  2.154
  49 O  -4.477 -6.201  3.477
  50 O  -4.587  2.815 -7.874
  51 O   7.511  0.532  8.534
  52 O   7.871  8.636  6.371
  53 O   0.462 -6.771  0.527
  54 O  -0.102 -8.506 -4.554
  55 O  -4.467  8.443  6.374
  56 O  -6.449 -0.774  4.987
  57 O   3.187 -7.295 -7.573
  58 O   3.552 -2.673 -6.786
  59 O  -5.092 -4.483  8.542
  60 O   0.335  0.679 -1.087
  61 O  -1.153 -4.041 -8.105
  62 O  -9.243  4.376  3.640
  63 O   8.765 -6.030 -3.121
  64 O   0.305  7.951  3.814
  65 HF  6.677  6.362 -3.360
                               1153 S  
                                         2.400E+01 2.211E-01 0.000E+00 0.000E+00
                                         1.600E+01-3.581E+00 0.000E+00 0.000E+00
                                         1.440E+01 4.254E+00 0.000E+00 0.000E+00
                                         1.030E+01-6.959E-01 0.000E+00 0.000E+00
                               1154 S  
                                         3.793E+00 1.000E+00 0.000E+00 0.000E+00
                               1155 S  
                                         1.019E+00 1.000E+00 0.000E+00 0.000E+00
                               1156 S  
                                         4.599E-01 1.000E+00 0.000E+00 0.000E+00
                               1157 S  
                                         1.928E-01 1.000E+00 0.000E+00 0.000E+00
                          1158-1160 P  
                                         2.235E+01 0.000E+00-7.453E-03 0.000E+00
                                         8.740E+00 0.000E+00 1.564E-01 0.000E+00
                                         4.850E+00 0.000E+00-4.487E-01 0.000E+00
                          1161-1163 P  
                                         1.257E+00 0.000E+00 1.000E+00 0.000E+00
                          1164-1166 P  
                                         6.112E-01 0.000E+00 1.000E+00 0.000E+00
                          1167-1169 P  
                                         2.674E-01 0.000E+00 1.000E+00 0.000E+00
                          1170-1174 D  
                                         8.056E+00 0.000E+00 0.000E+00 9.673E-03
                                         4.342E+00 0.000E+00 0.000E+00-5.457E-02
                                         1.184E+00 0.000E+00 0.000E+00 1.969E-01
                                         5.134E-01 0.000E+00 0.000E+00 4.000E-01
                          1175-1179 D  
                                         2.055E-01 0.000E+00 0.000E+00 1.000E+00
  66 HF  9.383  8.105  3.112
  67 HF -3.041  0.514  4.741
  68 HF -3.553  0.537 -1.131
  69 HF  1.101  8.394 -8.140
  70 HF -7.777 -3.628  2.639
  71 HF  1.350  8.828 -1.551
  72 HF -7.774  2.801 -5.877
  73 HF  1.433 -1.872 -3.701
  74 HF -8.826 -4.327  9.509
  75 HF  2.219 -4.533  9.055
  76 HF -5.461  6.686 -1.961
  77 HF  6.625 -6.432  0.396
  78 HF -2.884 -6.974  6.926
  79 HF  3.591  8.315  5.412
  80 HF  5.509 -5.788 -5.230
  81 HF -8.429 -8.449 -5.100
  82 HF -8.509 -2.724 -3.115
  83 HF -3.106  6.229  3.625
  84 HF -3.685 -0.855 -8.220
  85 HF  6.095 -2.054  5.656
  86 HF  8.057  7.488 -9.364
  87 HF  0.577  3.549 -4.391
  88 HF -4.134  6.108 -9.512
  89 HF  1.671  2.709  7.751
  90 HF -2.866 -6.386 -5.837
  91 HF -3.331 -6.790 -0.015
  92 HF  1.269 -3.720  2.485
  93 HF -8.667  1.849  6.727
  94 HF  5.981  0.429 -6.966
  95 HF  2.903  2.818  1.711
  96 HF  9.479  2.129  0.791
 INFORMATION **** TOLINTEG **** COULOMB AND EXCHANGE SERIES TOLERANCES MODIFIED
 INFORMATION **** READM2 **** FULL DIRECT SCF (MONO AND BIEL INT) SELECTED
 INFORMATION **** SMEAR **** FERMI SMEARING ACTIVE
 FERMI SMEARING - TEMPERATURE SMEARING OF FERMI SURFACE  0.1000E-12
 INFORMATION **** MAXCYCLE **** MAX NUMBER OF SCF CYCLES SET TO         250

 MODIFIED BROYDEN MIXING OF THE FOCK MATRIX
 WO PARAMETER(D.D. Johnson, PRB38, 12807,(1988)             1.0000E-04
 % OF FOCK/KS MATRICES MIXING WHEN BROYDEN METHOD IS ON             95
 NUMBER OF SCF ITERATIONS AFTER WHICH BROYDEN METHOD IS ACTIVE     125
 INFORMATION **** TOLDEE **** SCF TOL ON TOTAL ENERGY SET TO           7
 *******************************************************************************
 N. OF ATOMS PER CELL       96  COULOMB OVERLAP TOL         (T1) 10** -8
 NUMBER OF SHELLS          864  COULOMB PENETRATION TOL     (T2) 10** -8
 NUMBER OF AO             2016  EXCHANGE OVERLAP TOL        (T3) 10** -8
 N. OF ELECTRONS PER CELL  896  EXCHANGE PSEUDO OVP (F(G))  (T4) 10** -8
 CORE ELECTRONS PER CELL   128  EXCHANGE PSEUDO OVP (P(G))  (T5) 10**-16
 N. OF SYMMETRY OPERATORS    1  POLE ORDER IN MONO ZONE                4
 *******************************************************************************
 TYPE OF CALCULATION :  UNRESTRICTED OPEN SHELL
 KOHN-SHAM HAMILTONIAN

 (EXCHANGE)[CORRELATION] FUNCTIONAL:(BECKE)[LEE-YANG-PARR]

 NON-LOCAL WEIGHTING FACTOR (EXCHANGE) =           0.9000
 NON-LOCAL WEIGHTING FACTOR [CORRELATION] =        0.8100

 HYBRID EXCHANGE - PERCENTAGE OF FOCK EXCHANGE    20.0000

 SPIN POLARIZED DFT SELECTED
 CORE  PSEUDO POTENTIAL         TOL. ON PSEUDO              (TP) 10**- 6

 CAPPA:IS1  2;IS2  2;IS3  2; K PTS MONK NET    8; SYMMOPS: K SPACE  2;G SPACE  1

 *******************************************************************************
 MAX NUMBER OF SCF CYCLES     250  CONVERGENCE ON DELTAP        10**-17
 WEIGHT OF F(I) IN F(I+1)      95% CONVERGENCE ON ENERGY        10**- 7
 SHRINK. FACT.(MONKH.)    2  2  2  NUMBER OF K POINTS IN THE IBZ      8
 SHRINKING FACTOR(GILAT NET)    2  NUMBER OF K POINTS(GILAT NET)      8
 *******************************************************************************
 *** K POINTS COORDINATES (OBLIQUE COORDINATES IN UNITS OF IS =  2)
   1-R(  0  0  0)   2-R(  1  0  0)   3-R(  0  1  0)   4-R(  1  1  0)
   5-R(  0  0  1)   6-R(  1  0  1)   7-R(  0  1  1)   8-R(  1  1  1)

 DIRECT LATTICE VECTORS COMPON. (A.U.)     RECIP. LATTICE VECTORS COMPON. (A.U.) 
        X            Y            Z              X            Y            Z
   19.3360557    0.0000000    0.0000000      0.3249466    0.0000000    0.0000000
    0.0000000   18.8432341    0.0000000      0.0000000    0.3334452    0.0000000
    0.0000000    0.0000000   19.2289083      0.0000000    0.0000000    0.3267573

 DISK SPACE FOR EIGENVECTORS (FTN 10)   32514048 REALS

 SYMMETRY ADAPTION OF THE BLOCH FUNCTIONS DISABLED
 TTTTTTTTTTTTTTTTTTTTTTTTTTTTTT gordsh1     TELAPSE        5.09 TCPU        0.62
[r2i1n14:00726] 11 more processes have sent help message help-opal-shmem-mmap.txt / mmap on nfs
[r2i1n14:00726] Set MCA parameter "orte_base_help_aggregate" to 0 to see all help / error messages

 DIMENSIONS  P(G)= 6527438 F(G)= 1141532 P(G),F(G) (IRR) 3269591
 MAX G-VECTOR INDEX FOR 1- AND 2-ELECTRON INTEGRALS  27

 TTTTTTTTTTTTTTTTTTTTTTTTTTTTTT INPUT       TELAPSE        6.72 TCPU        2.24

 NEIGHBORS OF THE NON-EQUIVALENT ATOMS

 N = NUMBER OF NEIGHBORS AT DISTANCE R
    ATOM  N     R/ANG      R/AU   NEIGHBORS (ATOM LABELS AND CELL INDICES)
   1 O    1     2.0409     3.8568  81 HF   0 0 0
   1 O    1     2.0544     3.8823  74 HF   0 0-1
   1 O    1     2.1340     4.0327  86 HF  -1-1 0
   1 O    1     2.3810     4.4995  10 O   -1-1 0
   1 O    1     2.6131     4.9381  20 O    0 0 0
   1 O    1     2.7208     5.1415  52 O   -1-1-1

   2 O    1     1.9770     3.7361  68 HF   0 0 0
   2 O    1     2.0136     3.8052  76 HF   0 0 0
   2 O    1     2.1087     3.9848  87 HF   0 0 0
   2 O    1     2.4546     4.6384  13 O    0 0 0
   2 O    1     2.5217     4.7653  23 O    0 0 0
   2 O    1     2.6138     4.9393  60 O    0 0 0

   3 O    1     2.1099     3.9872  67 HF   0 0 0
   3 O    1     2.1530     4.0686  83 HF   0 0 0
   3 O    1     2.2031     4.1633  88 HF   0 0 1
   3 O    1     2.2978     4.3422  93 HF   0 0 0
   3 O    1     2.4990     4.7224  23 O    0 0 0
   3 O    1     2.5042     4.7322  55 O    0 0 0

   4 O    1     2.0371     3.8495  72 HF   0 0 0
   4 O    1     2.0383     3.8517  76 HF   0 0 0
   4 O    1     2.0463     3.8669  96 HF  -1 0 0
   4 O    1     2.4867     4.6991  41 O    0 0 0
   4 O    1     2.5344     4.7892   5 O   -1 0 0
   4 O    1     2.5953     4.9044  44 O    0 0 0

   5 O    1     2.0190     3.8154  82 HF   1 0 0
   5 O    1     2.0659     3.9040  94 HF   0 0 0
   5 O    1     2.0934     3.9560  72 HF   1 0 0
   5 O    1     2.4365     4.6043   7 O    0 0 0
   5 O    1     2.4498     4.6295  37 O    0 0 0
   5 O    1     2.5344     4.7892   4 O    1 0 0

   6 O    1     2.0500     3.8739  86 HF   0 0 1
   6 O    1     2.0551     3.8837  79 HF   0 0 0
   6 O    1     2.0654     3.9031  69 HF   0 0 1
   6 O    1     2.4962     4.7171  52 O    0 0 0
   6 O    1     2.6093     4.9309  42 O    0 1 0
   6 O    1     2.6124     4.9367  46 O    0 0 0

   7 O    1     2.0224     3.8218  74 HF   1 0-1
   7 O    1     2.0429     3.8604  80 HF   0 0 0
   7 O    1     2.3405     4.4228  94 HF   0 0 0
   7 O    1     2.4365     4.6043   5 O    0 0 0
   7 O    1     2.4394     4.6098  63 O    0 0 0
   7 O    1     2.4421     4.6150  58 O    0 0 0

   8 O    1     1.9411     3.6682  91 HF   0 0 0
   8 O    1     2.0296     3.8354  82 HF   0 0 0
   8 O    1     2.0359     3.8474  70 HF   0 0 0
   8 O    1     2.3362     4.4148  44 O    0 0 0
   8 O    1     2.5256     4.7728  28 O    0 0 0
   8 O    1     2.5435     4.8066  49 O    0 0 0

   9 O    1     2.0174     3.8124  94 HF   0 0 0
   9 O    1     2.0304     3.8370  73 HF   0 0 0
   9 O    1     2.1425     4.0488  87 HF   0 0 0
   9 O    1     2.3810     4.4995  60 O    0 0 0
   9 O    1     2.3971     4.5298  26 O    0 0 0
   9 O    1     2.5273     4.7758  58 O    0 0 0

  10 O    1     2.0028     3.7847  86 HF   0 0 0
  10 O    1     2.0698     3.9114  81 HF   1 1 0
  10 O    1     2.0859     3.9418  65 HF   0 0 0
  10 O    1     2.3106     4.3665  80 HF   0 1 0
  10 O    1     2.3810     4.4995   1 O    1 1 0
  10 O    1     2.4741     4.6754  11 O    0 1 0

  11 O    1     2.0158     3.8094  71 HF   0-1 0
  11 O    1     2.0456     3.8657  77 HF   0 0 0
  11 O    1     2.2559     4.2631  80 HF   0 0 0
  11 O    1     2.2992     4.3448  65 HF   0-1 0
  11 O    1     2.4449     4.6203  45 O    0 0 0
  11 O    1     2.4741     4.6754  10 O    0-1 0

  12 O    1     1.9526     3.6900  95 HF   0 0 0
  12 O    1     1.9668     3.7168  71 HF   0 0 0
  12 O    1     2.2112     4.1786  87 HF   0 0 0
  12 O    1     2.4077     4.5499  15 O    0 0 0
  12 O    1     2.4804     4.6873  60 O    0 0 0
  12 O    1     2.5814     4.8781  21 O    0 0 0

  13 O    1     1.9885     3.7578  69 HF   0 0 0
  13 O    1     1.9907     3.7619  87 HF   0 0 0
  13 O    1     2.1933     4.1447  88 HF   0 0 0
  13 O    1     2.3525     4.4456  14 O    0 0-1
  13 O    1     2.4546     4.6384   2 O    0 0 0
  13 O    1     2.5159     4.7543  47 O    0 1 0

  14 O    1     2.0053     3.7896  89 HF   0 0 0
  14 O    1     2.0236     3.8240  88 HF   0 0 1
  14 O    1     2.2068     4.1702  69 HF   0 0 1
  14 O    1     2.3525     4.4456  13 O    0 0 1
  14 O    1     2.6754     5.0557   3 O    0 0 0
  14 O    1     2.7203     5.1407   6 O    0 0 0

  15 O    1     2.0391     3.8534  65 HF   0 0 0
  15 O    1     2.0850     3.9401  87 HF   0 0 0
  15 O    1     2.2179     4.1912  71 HF   0 0 0
  15 O    1     2.3161     4.3769  69 HF   0 0 0
  15 O    1     2.4077     4.5499  12 O    0 0 0
  15 O    1     2.4770     4.6808  11 O    0 1 0

  16 O    1     1.9893     3.7592  86 HF  -1 0 1
  16 O    1     2.0516     3.8769  93 HF   0 0 0
  16 O    1     2.4884     4.7025  88 HF   0 0 1
  16 O    1     2.5525     4.8235  37 O   -1 0 1
  16 O    1     2.5642     4.8457  72 HF   0 0 1
  16 O    1     2.5852     4.8852   3 O    0 0 0

  17 O    1     2.0017     3.7827  73 HF   0 0 0
  17 O    1     2.0436     3.8618  87 HF   0 0 0
  17 O    1     2.0471     3.8684  84 HF   0 0 0
  17 O    1     2.5815     4.8784  60 O    0 0 0
  17 O    1     2.5884     4.8914  61 O    0 0 0
  17 O    1     2.6193     4.9498  24 O    0 0 0

  18 O    1     1.9673     3.7176  84 HF   0 0 1
  18 O    1     1.9796     3.7409  67 HF   0 0 0
  18 O    1     2.1482     4.0595  89 HF   0 0 0
  18 O    1     2.5384     4.7969  34 O    0 0 0
  18 O    1     2.6490     5.0059   3 O    0 0 0
  18 O    1     2.6500     5.0078  38 O    0 0 0

  19 O    1     1.9164     3.6215  75 HF   0 0 0
  19 O    1     1.9998     3.7791  85 HF   0 0 0
  19 O    1     2.4078     4.5501  43 O    0 0 0
  19 O    1     2.5321     4.7850  34 O    0 0 0
  19 O    1     2.6196     4.9504  57 O    0 0 1
  19 O    1     2.6320     4.9738  31 O    0 0 0

  20 O    1     2.0924     3.9540  90 HF   0 0 0
  20 O    1     2.1212     4.0085  81 HF   0 0 0
  20 O    1     2.1609     4.0836  82 HF   0 0 0
  20 O    1     2.3749     4.4879  74 HF   0 0-1
  20 O    1     2.4891     4.7037  28 O    0 0 0
  20 O    1     2.6131     4.9381   1 O    0 0 0

  21 O    1     2.0486     3.8713  91 HF   0 1 0
  21 O    1     2.0922     3.9536  76 HF   0 0 0
  21 O    1     2.1023     3.9727  71 HF   0 0 0
  21 O    1     2.3252     4.3939  83 HF   0 0 0
  21 O    1     2.3447     4.4308  36 O    0 0 0
  21 O    1     2.4059     4.5465  28 O    0 1 0

  22 O    1     2.0609     3.8946  84 HF   0 0 0
  22 O    1     2.1705     4.1017  74 HF   0 0-1
  22 O    1     2.2965     4.3397  93 HF   0 0-1
  22 O    1     2.4132     4.5604  50 O    0 0 0
  22 O    1     2.4371     4.6054  72 HF   0 0 0
  22 O    1     2.5217     4.7654  51 O   -1 0-1

  23 O    1     1.9874     3.7557  68 HF   0 0 0
  23 O    1     2.0736     3.9185  67 HF   0 0 0
  23 O    1     2.0965     3.9617  83 HF   0 0 0
  23 O    1     2.4465     4.6232  38 O    0 0 0
  23 O    1     2.4990     4.7224   3 O    0 0 0
  23 O    1     2.5217     4.7653   2 O    0 0 0

  24 O    1     2.0942     3.9574  68 HF   0 0 0
  24 O    1     2.0995     3.9676  82 HF   0 0 0
  24 O    1     2.1736     4.1075  72 HF   0 0 0
  24 O    1     2.2763     4.3016  84 HF   0 0 0
  24 O    1     2.5170     4.7564  44 O    0 0 0
  24 O    1     2.5452     4.8097  50 O    0 0 0

  25 O    1     1.9763     3.7346  96 HF   0 0 0
  25 O    1     2.1185     4.0034  65 HF   0 0 0
  25 O    1     2.1640     4.0894  95 HF   0 0 0
  25 O    1     2.7168     5.1341  12 O    0 0 0
  25 O    1     2.7263     5.1520   9 O    0 0 0
  25 O    1     2.8381     5.3632   4 O    1 0 0

  26 O    1     1.9167     3.6220  89 HF   0 0-1
  26 O    1     2.0605     3.8939  94 HF   0 0 0
  26 O    1     2.3971     4.5298   9 O    0 0 0
  26 O    1     2.3983     4.5322  87 HF   0 0 0
  26 O    1     2.7181     5.1365  17 O    0 0 0
  26 O    1     2.7278     5.1547  34 O    0 0-1

  27 O    1     1.9168     3.6222  92 HF   0 0 0
  27 O    1     2.0997     3.9679  78 HF   0 0 0
  27 O    1     2.1529     4.0683  75 HF   0 0 0
  27 O    1     2.3592     4.4582  42 O    0 0 0
  27 O    1     2.6010     4.9151  34 O    0 0 0
  27 O    1     2.6497     5.0072  35 O    0 0 0

  28 O    1     2.0341     3.8440  76 HF   0-1 0
  28 O    1     2.0506     3.8750  81 HF   0 0 0
  28 O    1     2.1100     3.9873  90 HF   0 0 0
  28 O    1     2.1626     4.0866  91 HF   0 0 0
  28 O    1     2.4059     4.5465  21 O    0-1 0
  28 O    1     2.4891     4.7037  20 O    0 0 0

  29 O    1     1.9497     3.6843  66 HF  -1-1 0
  29 O    1     1.9822     3.7458  77 HF  -1 0 0
  29 O    1     2.1091     3.9856  70 HF   0 0 0
  29 O    1     2.4989     4.7223  39 O   -1 0 0
  29 O    1     2.6073     4.9271  43 O   -1 0 0
  29 O    1     2.6615     5.0295   8 O    0 0 0

  30 O    1     2.0754     3.9219  90 HF   0 0 0
  30 O    1     2.1160     3.9987  73 HF   0 0 0
  30 O    1     2.2416     4.2361  91 HF   0 0 0
  30 O    1     2.5986     4.9107  53 O    0 0 0
  30 O    1     2.6568     5.0206   8 O    0 0 0
  30 O    1     2.6799     5.0643  54 O    0 0 0

  31 O    1     1.9945     3.7690  77 HF   0 0 0
  31 O    1     2.0150     3.8079  92 HF   0 0 0
  31 O    1     2.2922     4.3316  85 HF   0 0 0
  31 O    1     2.5342     4.7890  32 O    0 0 0
  31 O    1     2.6320     4.9738  19 O    0 0 0
  31 O    1     2.7094     5.1200  48 O    0-1 0

  32 O    1     1.9950     3.7701  95 HF   0 0 0
  32 O    1     2.0057     3.7902  92 HF   0 0 0
  32 O    1     2.1881     4.1348  85 HF   0 0 0
  32 O    1     2.5342     4.7890  31 O    0 0 0
  32 O    1     2.6167     4.9449  34 O    0 0 0
  32 O    1     2.6918     5.0868  33 O    0 0 0

  33 O    1     1.9854     3.7519  96 HF   0 0 0
  33 O    1     1.9911     3.7626  85 HF   0 0 0
  33 O    1     2.0703     3.9123  93 HF   1 0 0
  33 O    1     2.3278     4.3988  62 O    1 0 0
  33 O    1     2.4880     4.7017  56 O    1 0 0
  33 O    1     2.5025     4.7290  51 O    0 0 0

  34 O    1     1.9875     3.7559  85 HF   0 0 0
  34 O    1     2.0754     3.9219  89 HF   0 0 0
  34 O    1     2.1014     3.9712  75 HF   0 0 0
  34 O    1     2.5321     4.7850  19 O    0 0 0
  34 O    1     2.5384     4.7969  18 O    0 0 0
  34 O    1     2.5845     4.8839  51 O    0 0 0

  35 O    1     2.0211     3.8194  67 HF   0 0 0
  35 O    1     2.0884     3.9465  92 HF   0 0 0
  35 O    1     2.1737     4.1078  68 HF   0 0 0
  35 O    1     2.4635     4.6554  60 O    0 0 0
  35 O    1     2.6497     5.0072  27 O    0 0 0
  35 O    1     2.7008     5.1038  23 O    0 0 0

  36 O    1     2.0133     3.8046  76 HF   0 0 0
  36 O    1     2.0888     3.9472  83 HF   0 0 0
  36 O    1     2.1097     3.9868  66 HF  -1 0 0
  36 O    1     2.3447     4.4308  21 O    0 0 0
  36 O    1     2.5015     4.7272  62 O    0 0 0
  36 O    1     2.6419     4.9925  41 O    0 0 0

  37 O    1     2.0029     3.7850  65 HF   0 0 0
  37 O    1     2.1858     4.1306  72 HF   1 0 0
  37 O    1     2.2912     4.3298  94 HF   0 0 0
  37 O    1     2.3089     4.3631  86 HF   0 0 0
  37 O    1     2.4498     4.6295   5 O    0 0 0
  37 O    1     2.5525     4.8235  16 O    1 0-1

  38 O    1     2.0051     3.7891  67 HF   0 0 0
  38 O    1     2.0075     3.7937  95 HF   0 0 0
  38 O    1     2.1484     4.0600  89 HF   0 0 0
  38 O    1     2.3928     4.5218  46 O    0 0 0
  38 O    1     2.4465     4.6232  23 O    0 0 0
  38 O    1     2.4561     4.6413  83 HF   0 0 0

  39 O    1     2.0428     3.8603  70 HF   1 0 0
  39 O    1     2.0444     3.8634  77 HF   0 0 0
  39 O    1     2.2279     4.2102  82 HF   1 0 0
  39 O    1     2.3584     4.4567  44 O    1 0 0
  39 O    1     2.4343     4.6001  63 O    0 0 0
  39 O    1     2.4989     4.7223  29 O    1 0 0

  40 O    1     2.1351     4.0347  72 HF   0 0 0
  40 O    1     2.1809     4.1212  81 HF   0 1 0
  40 O    1     2.2100     4.1762  76 HF   0 0 0
  40 O    1     2.3793     4.4962  88 HF   0 0 0
  40 O    1     2.5232     4.7682  28 O    0 1 0
  40 O    1     2.5798     4.8751  50 O    0 0 0

  41 O    1     2.0154     3.8085  65 HF  -1 0 0
  41 O    1     2.1044     3.9768  81 HF   0 1 0
  41 O    1     2.3313     4.4056  76 HF   0 0 0
  41 O    1     2.4867     4.6991   4 O    0 0 0
  41 O    1     2.5475     4.8140  10 O   -1 0 0
  41 O    1     2.5697     4.8560  63 O   -1 1 0

  42 O    1     2.1298     4.0248  69 HF   0-1 1
  42 O    1     2.1371     4.0385  75 HF   0 0 0
  42 O    1     2.1728     4.1060  78 HF   0 0 0
  42 O    1     2.2601     4.2710  79 HF   0-1 0
  42 O    1     2.3592     4.4582  27 O    0 0 0
  42 O    1     2.4069     4.5484  57 O    0 0 1

  43 O    1     1.9421     3.6701  74 HF   1 0 0
  43 O    1     2.0547     3.8829  70 HF   1 0 0
  43 O    1     2.1143     3.9954  85 HF   0 0 0
  43 O    1     2.4078     4.5501  19 O    0 0 0
  43 O    1     2.4752     4.6774  56 O    1 0 0
  43 O    1     2.5788     4.8732  33 O    0 0 0

  44 O    1     2.0206     3.8185  96 HF  -1 0 0
  44 O    1     2.1046     3.9772  68 HF   0 0 0
  44 O    1     2.1561     4.0745  70 HF   0 0 0
  44 O    1     2.1702     4.1011  82 HF   0 0 0
  44 O    1     2.3362     4.4148   8 O    0 0 0
  44 O    1     2.3584     4.4567  39 O   -1 0 0

  45 O    1     2.0160     3.8097  73 HF   0 0 0
  45 O    1     2.0245     3.8258  80 HF   0 0 0
  45 O    1     2.2549     4.2611  77 HF   0 0 0
  45 O    1     2.4449     4.6203  11 O    0 0 0
  45 O    1     2.6135     4.9388  58 O    0 0 0
  45 O    1     2.7161     5.1327  53 O    0 0 0

  46 O    1     2.0521     3.8780  79 HF   0 0 0
  46 O    1     2.0528     3.8792  95 HF   0 0 0
  46 O    1     2.1145     3.9958  89 HF   0 0 0
  46 O    1     2.3928     4.5218  38 O    0 0 0
  46 O    1     2.6124     4.9367   6 O    0 0 0
  46 O    1     2.7641     5.2234  64 O    0 0 0

  47 O    1     2.0221     3.8213  90 HF   0 0 0
  47 O    1     2.1631     4.0878  78 HF   0 0-1
  47 O    1     2.1676     4.0961  88 HF   0-1 0
  47 O    1     2.2910     4.3293  69 HF   0-1 0
  47 O    1     2.4753     4.6776  55 O    0-1-1
  47 O    1     2.5159     4.7543  13 O    0-1 0

  48 O    1     1.9925     3.7653  66 HF   0 0 0
  48 O    1     2.0828     3.9359  79 HF   0 0 0
  48 O    1     2.2580     4.2671  77 HF   0 1 0
  48 O    1     2.4821     4.6905  11 O    0 1 0
  48 O    1     2.4914     4.7080  52 O    0 0 0
  48 O    1     2.6665     5.0389  29 O    1 1 0

  49 O    1     1.9696     3.7221  91 HF   0 0 0
  49 O    1     2.0513     3.8764  78 HF   0 0 0
  49 O    1     2.2585     4.2680  70 HF   0 0 0
  49 O    1     2.5435     4.8066   8 O    0 0 0
  49 O    1     2.6995     5.1014  55 O    0-1 0
  49 O    1     2.7262     5.1517  35 O    0 0 0

  50 O    1     1.9607     3.7051  88 HF   0 0 0
  50 O    1     1.9901     3.7608  72 HF   0 0 0
  50 O    1     2.0085     3.7954  84 HF   0 0 0
  50 O    1     2.4132     4.5604  22 O    0 0 0
  50 O    1     2.5438     4.8071  13 O    0 0 0
  50 O    1     2.5452     4.8097  24 O    0 0 0

  51 O    1     2.0476     3.8694  93 HF   1 0 0
  51 O    1     2.1338     4.0323  94 HF   0 0 1
  51 O    1     2.1803     4.1202  85 HF   0 0 0
  51 O    1     2.5025     4.7290  33 O    0 0 0
  51 O    1     2.5217     4.7654  22 O    1 0 1
  51 O    1     2.5845     4.8839  34 O    0 0 0

  52 O    1     1.9216     3.6313  66 HF   0 0 0
  52 O    1     1.9486     3.6824  86 HF   0 0 1
  52 O    1     2.3270     4.3973  79 HF   0 0 0
  52 O    1     2.4914     4.7080  48 O    0 0 0
  52 O    1     2.4962     4.7171   6 O    0 0 0
  52 O    1     2.7208     5.1415   1 O    1 1 1

  53 O    1     1.9653     3.7138  92 HF   0 0 0
  53 O    1     2.0279     3.8321  91 HF   0 0 0
  53 O    1     2.0921     3.9536  71 HF   0-1 0
  53 O    1     2.5067     4.7370  21 O    0-1 0
  53 O    1     2.5986     4.9107  30 O    0 0 0
  53 O    1     2.7161     5.1327  45 O    0 0 0

  54 O    1     1.9374     3.6611  71 HF   0-1 0
  54 O    1     1.9644     3.7122  90 HF   0 0 0
  54 O    1     2.2503     4.2524  69 HF   0-1 0
  54 O    1     2.4480     4.6261  57 O    0 0 0
  54 O    1     2.5695     4.8556  13 O    0-1 0
  54 O    1     2.5912     4.8967  15 O    0-1 0

  55 O    1     2.0017     3.7827  83 HF   0 0 0
  55 O    1     2.0182     3.8138  78 HF   0 1 0
  55 O    1     2.1652     4.0916  88 HF   0 0 1
  55 O    1     2.4753     4.6776  47 O    0 1 1
  55 O    1     2.5042     4.7322   3 O    0 0 0
  55 O    1     2.6995     5.1014  49 O    0 1 0

  56 O    1     1.9321     3.6512  67 HF   0 0 0
  56 O    1     2.0375     3.8504  93 HF   0 0 0
  56 O    1     2.0780     3.9268  70 HF   0 0 0
  56 O    1     2.4752     4.6774  43 O   -1 0 0
  56 O    1     2.4880     4.7017  33 O   -1 0 0
  56 O    1     2.6310     4.9718  44 O    0 0 0

  57 O    1     1.9190     3.6263  80 HF   0 0 0
  57 O    1     2.0239     3.8246  69 HF   0-1 0
  57 O    1     2.0719     3.9153  75 HF   0 0-1
  57 O    1     2.4069     4.5484  42 O    0 0-1
  57 O    1     2.4480     4.6261  54 O    0 0 0
  57 O    1     2.4883     4.7022  58 O    0 0 0

  58 O    1     2.0253     3.8273  73 HF   0 0 0
  58 O    1     2.0869     3.9437  94 HF   0 0 0
  58 O    1     2.1134     3.9938  80 HF   0 0 0
  58 O    1     2.1633     4.0881  75 HF   0 0-1
  58 O    1     2.4421     4.6150   7 O    0 0 0
  58 O    1     2.4883     4.7022  57 O    0 0 0

  59 O    1     1.9581     3.7003  78 HF   0 0 0
  59 O    1     2.0431     3.8610  74 HF   0 0 0
  59 O    1     2.4379     4.6070  84 HF   0 0 1
  59 O    1     2.5032     4.7304  61 O    0 0 1
  59 O    1     2.5964     4.9064  22 O    0 0 1
  59 O    1     2.6638     5.0339  20 O    0 0 1

  60 O    1     2.0182     3.8139  73 HF   0 0 0
  60 O    1     2.0586     3.8902  68 HF   0 0 0
  60 O    1     2.3068     4.3592  95 HF   0 0 0
  60 O    1     2.3195     4.3831  87 HF   0 0 0
  60 O    1     2.3810     4.4995   9 O    0 0 0
  60 O    1     2.4635     4.6554  35 O    0 0 0

  61 O    1     1.9499     3.6847  90 HF   0 0 0
  61 O    1     2.1095     3.9864  75 HF   0 0-1
  61 O    1     2.1540     4.0706  84 HF   0 0 0
  61 O    1     2.5032     4.7304  59 O    0 0-1
  61 O    1     2.5884     4.8914  17 O    0 0 0
  61 O    1     2.6852     5.0743  58 O    0 0 0

  62 O    1     1.9476     3.6804  96 HF  -1 0 0
  62 O    1     2.0276     3.8316  66 HF  -1 0 0
  62 O    1     2.1331     4.0310  93 HF   0 0 0
  62 O    1     2.3278     4.3988  33 O   -1 0 0
  62 O    1     2.5015     4.7272  36 O    0 0 0
  62 O    1     2.7952     5.2821   3 O    0 0 0

  63 O    1     2.0051     3.7890  81 HF   1 0 0
  63 O    1     2.0566     3.8864  80 HF   0 0 0
  63 O    1     2.0621     3.8968  82 HF   1 0 0
  63 O    1     2.1889     4.1364  77 HF   0 0 0
  63 O    1     2.4343     4.6001  39 O    0 0 0
  63 O    1     2.4394     4.6098   7 O    0 0 0

  64 O    1     1.9436     3.6728  79 HF   0 0 0
  64 O    1     2.0245     3.8258  83 HF   0 0 0
  64 O    1     2.5350     4.7904  21 O    0 0 0
  64 O    1     2.5771     4.8701  42 O    0 1 0
  64 O    1     2.7366     5.1715  14 O    0 0 0
  64 O    1     2.7588     5.2135  38 O    0 0 0

  65 HF   1     2.0029     3.7850  37 O    0 0 0
  65 HF   1     2.0154     3.8085  41 O    1 0 0
  65 HF   1     2.0391     3.8534  15 O    0 0 0
  65 HF   1     2.0859     3.9418  10 O    0 0 0
  65 HF   1     2.1185     4.0034  25 O    0 0 0
  65 HF   1     2.2992     4.3448  11 O    0 1 0

  66 HF   1     1.9216     3.6313  52 O    0 0 0
  66 HF   1     1.9497     3.6843  29 O    1 1 0
  66 HF   1     1.9925     3.7653  48 O    0 0 0
  66 HF   1     2.0276     3.8316  62 O    1 0 0
  66 HF   1     2.1097     3.9868  36 O    1 0 0
  66 HF   1     2.7158     5.1321  41 O    1 0 0

  67 HF   1     1.9321     3.6512  56 O    0 0 0
  67 HF   1     1.9796     3.7409  18 O    0 0 0
  67 HF   1     2.0051     3.7891  38 O    0 0 0
  67 HF   1     2.0211     3.8194  35 O    0 0 0
  67 HF   1     2.0736     3.9185  23 O    0 0 0
  67 HF   1     2.1099     3.9872   3 O    0 0 0

  68 HF   1     1.9770     3.7361   2 O    0 0 0
  68 HF   1     1.9874     3.7557  23 O    0 0 0
  68 HF   1     2.0586     3.8902  60 O    0 0 0
  68 HF   1     2.0942     3.9574  24 O    0 0 0
  68 HF   1     2.1046     3.9772  44 O    0 0 0
  68 HF   1     2.1737     4.1078  35 O    0 0 0

  69 HF   1     1.9885     3.7578  13 O    0 0 0
  69 HF   1     2.0239     3.8246  57 O    0 1 0
  69 HF   1     2.0654     3.9031   6 O    0 0-1
  69 HF   1     2.1298     4.0248  42 O    0 1-1
  69 HF   1     2.2068     4.1702  14 O    0 0-1
  69 HF   1     2.2503     4.2524  54 O    0 1 0

  70 HF   1     2.0359     3.8474   8 O    0 0 0
  70 HF   1     2.0428     3.8603  39 O   -1 0 0
  70 HF   1     2.0547     3.8829  43 O   -1 0 0
  70 HF   1     2.0780     3.9268  56 O    0 0 0
  70 HF   1     2.1091     3.9856  29 O    0 0 0
  70 HF   1     2.1561     4.0745  44 O    0 0 0

  71 HF   1     1.9374     3.6611  54 O    0 1 0
  71 HF   1     1.9668     3.7168  12 O    0 0 0
  71 HF   1     2.0158     3.8094  11 O    0 1 0
  71 HF   1     2.0921     3.9536  53 O    0 1 0
  71 HF   1     2.1023     3.9727  21 O    0 0 0
  71 HF   1     2.2179     4.1912  15 O    0 0 0

  72 HF   1     1.9901     3.7608  50 O    0 0 0
  72 HF   1     2.0371     3.8495   4 O    0 0 0
  72 HF   1     2.0934     3.9560   5 O   -1 0 0
  72 HF   1     2.1351     4.0347  40 O    0 0 0
  72 HF   1     2.1736     4.1075  24 O    0 0 0
  72 HF   1     2.1858     4.1306  37 O   -1 0 0

  73 HF   1     2.0017     3.7827  17 O    0 0 0
  73 HF   1     2.0160     3.8097  45 O    0 0 0
  73 HF   1     2.0182     3.8139  60 O    0 0 0
  73 HF   1     2.0253     3.8273  58 O    0 0 0
  73 HF   1     2.0304     3.8370   9 O    0 0 0
  73 HF   1     2.1160     3.9987  30 O    0 0 0

  74 HF   1     1.9421     3.6701  43 O   -1 0 0
  74 HF   1     2.0224     3.8218   7 O   -1 0 1
  74 HF   1     2.0431     3.8610  59 O    0 0 0
  74 HF   1     2.0544     3.8823   1 O    0 0 1
  74 HF   1     2.1705     4.1017  22 O    0 0 1
  74 HF   1     2.3749     4.4879  20 O    0 0 1

  75 HF   1     1.9164     3.6215  19 O    0 0 0
  75 HF   1     2.0719     3.9153  57 O    0 0 1
  75 HF   1     2.1014     3.9712  34 O    0 0 0
  75 HF   1     2.1095     3.9864  61 O    0 0 1
  75 HF   1     2.1371     4.0385  42 O    0 0 0
  75 HF   1     2.1529     4.0683  27 O    0 0 0

  76 HF   1     2.0133     3.8046  36 O    0 0 0
  76 HF   1     2.0136     3.8052   2 O    0 0 0
  76 HF   1     2.0341     3.8440  28 O    0 1 0
  76 HF   1     2.0383     3.8517   4 O    0 0 0
  76 HF   1     2.0922     3.9536  21 O    0 0 0
  76 HF   1     2.2100     4.1762  40 O    0 0 0

  77 HF   1     1.9822     3.7458  29 O    1 0 0
  77 HF   1     1.9945     3.7690  31 O    0 0 0
  77 HF   1     2.0444     3.8634  39 O    0 0 0
  77 HF   1     2.0456     3.8657  11 O    0 0 0
  77 HF   1     2.1889     4.1364  63 O    0 0 0
  77 HF   1     2.2549     4.2611  45 O    0 0 0

  78 HF   1     1.9581     3.7003  59 O    0 0 0
  78 HF   1     2.0182     3.8138  55 O    0-1 0
  78 HF   1     2.0513     3.8764  49 O    0 0 0
  78 HF   1     2.0997     3.9679  27 O    0 0 0
  78 HF   1     2.1631     4.0878  47 O    0 0 1
  78 HF   1     2.1728     4.1060  42 O    0 0 0

  79 HF   1     1.9436     3.6728  64 O    0 0 0
  79 HF   1     2.0521     3.8780  46 O    0 0 0
  79 HF   1     2.0551     3.8837   6 O    0 0 0
  79 HF   1     2.0828     3.9359  48 O    0 0 0
  79 HF   1     2.2601     4.2710  42 O    0 1 0
  79 HF   1     2.3270     4.3973  52 O    0 0 0

  80 HF   1     1.9190     3.6263  57 O    0 0 0
  80 HF   1     2.0245     3.8258  45 O    0 0 0
  80 HF   1     2.0429     3.8604   7 O    0 0 0
  80 HF   1     2.0566     3.8864  63 O    0 0 0
  80 HF   1     2.1134     3.9938  58 O    0 0 0
  80 HF   1     2.2559     4.2631  11 O    0 0 0

  81 HF   1     2.0051     3.7890  63 O   -1 0 0
  81 HF   1     2.0409     3.8568   1 O    0 0 0
  81 HF   1     2.0506     3.8750  28 O    0 0 0
  81 HF   1     2.0698     3.9114  10 O   -1-1 0
  81 HF   1     2.1044     3.9768  41 O    0-1 0
  81 HF   1     2.1212     4.0085  20 O    0 0 0

  82 HF   1     2.0190     3.8154   5 O   -1 0 0
  82 HF   1     2.0296     3.8354   8 O    0 0 0
  82 HF   1     2.0621     3.8968  63 O   -1 0 0
  82 HF   1     2.0995     3.9676  24 O    0 0 0
  82 HF   1     2.1609     4.0836  20 O    0 0 0
  82 HF   1     2.1702     4.1011  44 O    0 0 0

  83 HF   1     2.0017     3.7827  55 O    0 0 0
  83 HF   1     2.0245     3.8258  64 O    0 0 0
  83 HF   1     2.0888     3.9472  36 O    0 0 0
  83 HF   1     2.0965     3.9617  23 O    0 0 0
  83 HF   1     2.1530     4.0686   3 O    0 0 0
  83 HF   1     2.3252     4.3939  21 O    0 0 0

  84 HF   1     1.9673     3.7176  18 O    0 0-1
  84 HF   1     2.0085     3.7954  50 O    0 0 0
  84 HF   1     2.0471     3.8684  17 O    0 0 0
  84 HF   1     2.0609     3.8946  22 O    0 0 0
  84 HF   1     2.1540     4.0706  61 O    0 0 0
  84 HF   1     2.2763     4.3016  24 O    0 0 0

  85 HF   1     1.9875     3.7559  34 O    0 0 0
  85 HF   1     1.9911     3.7626  33 O    0 0 0
  85 HF   1     1.9998     3.7791  19 O    0 0 0
  85 HF   1     2.1143     3.9954  43 O    0 0 0
  85 HF   1     2.1803     4.1202  51 O    0 0 0
  85 HF   1     2.1881     4.1348  32 O    0 0 0

  86 HF   1     1.9486     3.6824  52 O    0 0-1
  86 HF   1     1.9893     3.7592  16 O    1 0-1
  86 HF   1     2.0028     3.7847  10 O    0 0 0
  86 HF   1     2.0500     3.8739   6 O    0 0-1
  86 HF   1     2.1340     4.0327   1 O    1 1 0
  86 HF   1     2.3089     4.3631  37 O    0 0 0

  87 HF   1     1.9907     3.7619  13 O    0 0 0
  87 HF   1     2.0436     3.8618  17 O    0 0 0
  87 HF   1     2.0850     3.9401  15 O    0 0 0
  87 HF   1     2.1087     3.9848   2 O    0 0 0
  87 HF   1     2.1425     4.0488   9 O    0 0 0
  87 HF   1     2.2112     4.1786  12 O    0 0 0

  88 HF   1     1.9607     3.7051  50 O    0 0 0
  88 HF   1     2.0236     3.8240  14 O    0 0-1
  88 HF   1     2.1652     4.0916  55 O    0 0-1
  88 HF   1     2.1676     4.0961  47 O    0 1 0
  88 HF   1     2.1933     4.1447  13 O    0 0 0
  88 HF   1     2.2031     4.1633   3 O    0 0-1

  89 HF   1     1.9167     3.6220  26 O    0 0 1
  89 HF   1     2.0053     3.7896  14 O    0 0 0
  89 HF   1     2.0754     3.9219  34 O    0 0 0
  89 HF   1     2.1145     3.9958  46 O    0 0 0
  89 HF   1     2.1482     4.0595  18 O    0 0 0
  89 HF   1     2.1484     4.0600  38 O    0 0 0

  90 HF   1     1.9499     3.6847  61 O    0 0 0
  90 HF   1     1.9644     3.7122  54 O    0 0 0
  90 HF   1     2.0221     3.8213  47 O    0 0 0
  90 HF   1     2.0754     3.9219  30 O    0 0 0
  90 HF   1     2.0924     3.9540  20 O    0 0 0
  90 HF   1     2.1100     3.9873  28 O    0 0 0

  91 HF   1     1.9411     3.6682   8 O    0 0 0
  91 HF   1     1.9696     3.7221  49 O    0 0 0
  91 HF   1     2.0279     3.8321  53 O    0 0 0
  91 HF   1     2.0486     3.8713  21 O    0-1 0
  91 HF   1     2.1626     4.0866  28 O    0 0 0
  91 HF   1     2.2416     4.2361  30 O    0 0 0

  92 HF   1     1.9168     3.6222  27 O    0 0 0
  92 HF   1     1.9653     3.7138  53 O    0 0 0
  92 HF   1     2.0057     3.7902  32 O    0 0 0
  92 HF   1     2.0150     3.8079  31 O    0 0 0
  92 HF   1     2.0884     3.9465  35 O    0 0 0
  92 HF   1     2.8399     5.3667  45 O    0 0 0

  93 HF   1     2.0375     3.8504  56 O    0 0 0
  93 HF   1     2.0476     3.8694  51 O   -1 0 0
  93 HF   1     2.0516     3.8769  16 O    0 0 0
  93 HF   1     2.0703     3.9123  33 O   -1 0 0
  93 HF   1     2.1331     4.0310  62 O    0 0 0
  93 HF   1     2.2965     4.3397  22 O    0 0 1

  94 HF   1     2.0174     3.8124   9 O    0 0 0
  94 HF   1     2.0605     3.8939  26 O    0 0 0
  94 HF   1     2.0659     3.9040   5 O    0 0 0
  94 HF   1     2.0869     3.9437  58 O    0 0 0
  94 HF   1     2.1338     4.0323  51 O    0 0-1
  94 HF   1     2.2912     4.3298  37 O    0 0 0

  95 HF   1     1.9526     3.6900  12 O    0 0 0
  95 HF   1     1.9950     3.7701  32 O    0 0 0
  95 HF   1     2.0075     3.7937  38 O    0 0 0
  95 HF   1     2.0528     3.8792  46 O    0 0 0
  95 HF   1     2.1640     4.0894  25 O    0 0 0
  95 HF   1     2.3068     4.3592  60 O    0 0 0

  96 HF   1     1.9476     3.6804  62 O    1 0 0
  96 HF   1     1.9763     3.7346  25 O    0 0 0
  96 HF   1     1.9854     3.7519  33 O    0 0 0
  96 HF   1     2.0206     3.8185  44 O    1 0 0
  96 HF   1     2.0463     3.8669   4 O    1 0 0
  96 HF   1     2.7982     5.2877  39 O    0 0 0


 SYMMETRY ALLOWED INTERNAL DEGREE(S) OF FREEDOM: 285
 TTTTTTTTTTTTTTTTTTTTTTTTTTTTTT SYMM        TELAPSE        6.77 TCPU        2.27
 TTTTTTTTTTTTTTTTTTTTTTTTTTTTTT INT_SCREEN  TELAPSE        9.21 TCPU        4.70
 INFORMATION **** EXCBUF **** EXCH. BIPO BUFFER: WORDS USED =      360000
 WARNING **** EXCBUF **** EXCH. BIPO BUFFER TOO SMALL - TO AVOID I/O SET EXCHSIZE =    20704572

 DFT PARAMETERS

     ATOM       ELECTRONS   NET CHARGE   R(ANGSTROM)
   1   8  O      10.0000     -2.0000     1.40000000
  65 272  HF      8.0000      4.0000     0.71000000

 SIZE OF GRID=    1918486
 TTTTTTTTTTTTTTTTTTTTTTTTTTTTTT MAKE_GRID2  TELAPSE      185.38 TCPU      133.75
 BECKE WEIGHT FUNCTION
 RADSAFE =     2.00
 TOLERANCES - DENSITY:10**- 6; POTENTIAL:10**- 9; GRID WGT:10**-14

 RADIAL INTEGRATION  - INTERVALS (POINTS,UPPER LIMIT):            1( 75,  4.0*R)

 ANGULAR INTEGRATION - INTERVALS (ACCURACY LEVEL [N. POINTS] UPPER LIMIT):
  1(  4[  86]   0.2)  2(  8[ 194]   0.5)  3( 12[ 350]   0.9)  4( 16[ 974]   3.5)
  5( 12[ 350]9999.0)
 TTTTTTTTTTTTTTTTTTTTTTTTTTTTTT INT_CALC    TELAPSE      189.90 TCPU      138.24
 EEEEEEEEEE INT_CALC TERMINATION  DATE 21 07 2015 TIME 21:22:03.4

 *******************************************************************************
 Created with astools                                                            
 CRYSTAL - SCF - TYPE OF CALCULATION :  UNRESTRICTED OPEN SHELL
 *******************************************************************************

 CAPPA:IS1  2;IS2  2;IS3  2; K PTS MONK NET    8; SYMMOPS: K SPACE  2;G SPACE  1

 TTTTTTTTTTTTTTTTTTTTTTTTTTTTTT SDIK        TELAPSE      191.26 TCPU      139.57

 AAAAAAAAAAAAAAAAAAAAAAAAAAAAAAAAAAAAAAAAAAAAAAAAAAAAAAAAAAAAAAAAAAAAAAAAAAAAAAA
         ATOMIC WAVEFUNCTION(S)


 NUCLEAR CHARGE  8.0  SYMMETRY SPECIES            S    P
 N. ELECTRONS   10.0  NUMBER OF PRIMITIVE GTOS   10    6
                      NUMBER OF CONTRACTED GTOS   4    3
                      NUMBER OF CLOSED SHELLS     2    1
                      OPEN SHELL OCCUPATION       0    0

  ZNUC SCFIT  TOTAL HF ENERGY   KINETIC ENERGY   VIRIAL THEOREM ACCURACY
   8.0  26   -7.431960197E+01  7.496076567E+01 -1.991446676E+00  4.5E-06

 NUCLEAR CHARGE 12.0  SYMMETRY SPECIES            S    P
 N. ELECTRONS    8.0  NUMBER OF PRIMITIVE GTOS    8    6
                      NUMBER OF CONTRACTED GTOS   5    4
                      NUMBER OF CLOSED SHELLS     1    1
                      OPEN SHELL OCCUPATION       0    0

  ZNUC SCFIT  TOTAL HF ENERGY   KINETIC ENERGY   VIRIAL THEOREM ACCURACY
  12.0   5   -4.553754373E+01  1.235933936E+01 -4.684464226E+00  1.2E-06

 AAAAAAAAAAAAAAAAAAAAAAAAAAAAAAAAAAAAAAAAAAAAAAAAAAAAAAAAAAAAAAAAAAAAAAAAAAAAAAA

 CHARGE NORMALIZATION FACTOR   1.00000000
 TOTAL ATOMIC CHARGES:
  10.0000000  10.0000000  10.0000000  10.0000000  10.0000000  10.0000000
  10.0000000  10.0000000  10.0000000  10.0000000  10.0000000  10.0000000
  10.0000000  10.0000000  10.0000000  10.0000000  10.0000000  10.0000000
  10.0000000  10.0000000  10.0000000  10.0000000  10.0000000  10.0000000
  10.0000000  10.0000000  10.0000000  10.0000000  10.0000000  10.0000000
  10.0000000  10.0000000  10.0000000  10.0000000  10.0000000  10.0000000
  10.0000000  10.0000000  10.0000000  10.0000000  10.0000000  10.0000000
  10.0000000  10.0000000  10.0000000  10.0000000  10.0000000  10.0000000
  10.0000000  10.0000000  10.0000000  10.0000000  10.0000000  10.0000000
  10.0000000  10.0000000  10.0000000  10.0000000  10.0000000  10.0000000
  10.0000000  10.0000000  10.0000000  10.0000000   8.0000000   8.0000000
   8.0000000   8.0000000   8.0000000   8.0000000   8.0000000   8.0000000
   8.0000000   8.0000000   8.0000000   8.0000000   8.0000000   8.0000000
[...]
 TTTTTTTTTTTTTTTTTTTTTTTTTTTTTT PDIG        TELAPSE    41160.57 TCPU    39834.49
 CHARGE NORMALIZATION FACTOR   1.00000000
 TOTAL ATOMIC CHARGES:
   9.3713642   9.3137779   9.4589787   9.4264672   9.4877788   9.3979002
   9.4261799   9.3478034   9.5091901   9.6468272   9.5879562   9.3304106
   9.3778465   9.3951564   9.5251715   9.3657151   9.3314457   9.3484283
   9.3434102   9.5352144   9.5984462   9.4641742   9.3673163   9.5343193
   9.3226888   9.3031678   9.3828280   9.5445951   9.2935867   9.3859773
   9.4997620   9.3397128   9.4014645   9.3192099   9.4685536   9.3779221
   9.5064844   9.4997182   9.5238968   9.4368982   9.4670232   9.5463064
   9.3740994   9.6279906   9.3046187   9.4711098   9.5191363   9.4613799
   9.2945716   9.3907972   9.3329990   9.3028122   9.3310973   9.2449157
   9.4601262   9.3768884   9.3368922   9.6289435   9.2973725   9.5296636
   9.4160438   9.3315487   9.6772303   9.2023797   9.0431115   9.2667828
   9.1654759   9.1037644   9.2036343   9.2163205   9.1741545   9.0456021
   9.1724078   9.1178605   9.1668259   9.0916678   9.0777964   9.1571858
   9.2058533   9.0316491   9.0332223   8.9778477   9.2322148   9.2248916
   9.2540591   9.1566495   9.1341467   9.1453673   9.2002479   9.2448046
   9.2479472   9.2517202   9.2314525   9.0871647   9.1635480   9.1509323
 SUMMED SPIN DENSITY           0.00000000
 TOTAL ATOMIC SPINS  :
   0.0000000   0.0000000   0.0000000   0.0000000   0.0000000   0.0000000
   0.0000000   0.0000000   0.0000000   0.0000000   0.0000000   0.0000000
   0.0000000   0.0000000   0.0000000   0.0000000   0.0000000   0.0000000
   0.0000000   0.0000000   0.0000000   0.0000000   0.0000000   0.0000000
   0.0000000   0.0000000   0.0000000   0.0000000   0.0000000   0.0000000
   0.0000000   0.0000000   0.0000000   0.0000000   0.0000000   0.0000000
   0.0000000   0.0000000   0.0000000   0.0000000   0.0000000   0.0000000
   0.0000000   0.0000000   0.0000000   0.0000000   0.0000000   0.0000000
   0.0000000   0.0000000   0.0000000   0.0000000   0.0000000   0.0000000
   0.0000000   0.0000000   0.0000000   0.0000000   0.0000000   0.0000000
   0.0000000   0.0000000   0.0000000   0.0000000   0.0000000   0.0000000
   0.0000000   0.0000000   0.0000000   0.0000000   0.0000000   0.0000000
   0.0000000   0.0000000   0.0000000   0.0000000   0.0000000   0.0000000
   0.0000000   0.0000000   0.0000000   0.0000000   0.0000000   0.0000000
   0.0000000   0.0000000   0.0000000   0.0000000   0.0000000   0.0000000
   0.0000000   0.0000000   0.0000000   0.0000000   0.0000000   0.0000000
 TTTTTTTTTTTTTTTTTTTTTTTTTTTTTT MOQGAD      TELAPSE    41161.16 TCPU    39835.08
 WARNING **** GENBUD **** COUL. BIPO BUFFER TOO SMALL - TO AVOID I/O SET BIPOSIZE =     3862650
 TTTTTTTTTTTTTTTTTTTTTTTTTTTTTT SHELLX      TELAPSE    41447.58 TCPU    40118.80
 TTTTTTTTTTTTTTTTTTTTTTTTTTTTTT MONMO3      TELAPSE    41479.77 TCPU    40150.93
 NUMERICALLY INTEGRATED DENSITY    447.9999981542    447.9999981542
 TTTTTTTTTTTTTTTTTTTTTTTTTTTTTT NUMDFT      TELAPSE    41487.38 TCPU    40158.45
 CYC  73 ETOT(AU) -6.385005399322E+03 DETOT -6.70E-07 tst  9.76E-12 PX  7.51E-05
 TTTTTTTTTTTTTTTTTTTTTTTTTTTTTT FDIK        TELAPSE    41579.96 TCPU    40247.42

    ALPHA      ELECTRONS
 INSULATING STATE
 TOP OF VALENCE BANDS -    BAND    448; K    8; EIG -1.3066912E-01 AU
 TOP OF VALENCE BANDS -    BAND    448; K    1; EIG -1.3174130E-01 AU
 BOTTOM OF VIRTUAL BANDS - BAND    449; K    6; EIG  6.9353655E-02 AU
 BOTTOM OF VIRTUAL BANDS - BAND    449; K    1; EIG  7.2493552E-02 AU

    BETA       ELECTRONS
 INSULATING STATE
 TOP OF VALENCE BANDS -    BAND    448; K    8; EIG -1.3066912E-01 AU
 TOP OF VALENCE BANDS -    BAND    448; K    1; EIG -1.3174130E-01 AU
 BOTTOM OF VIRTUAL BANDS - BAND    449; K    6; EIG  6.9353655E-02 AU
 BOTTOM OF VIRTUAL BANDS - BAND    449; K    1; EIG  7.2493552E-02 AU
 TTTTTTTTTTTTTTTTTTTTTTTTTTTTTT PDIG        TELAPSE    41676.03 TCPU    40330.40
 CHARGE NORMALIZATION FACTOR   1.00000000
 TOTAL ATOMIC CHARGES:
   9.3713666   9.3138045   9.4589911   9.4264658   9.4877745   9.3979038
   9.4261823   9.3478316   9.5091882   9.6468071   9.5879804   9.3304210
   9.3778764   9.3951626   9.5251731   9.3657043   9.3314625   9.3484495
   9.3434379   9.5352086   9.5984507   9.4641779   9.3673291   9.5343142
   9.3227046   9.3032007   9.3828373   9.5445955   9.2936213   9.3859807
   9.4997478   9.3397330   9.4014700   9.3192238   9.4685463   9.3779506
   9.5064706   9.4996928   9.5239036   9.4368927   9.4670207   9.5463092
   9.3741058   9.6279939   9.3046380   9.4711126   9.5191369   9.4613565
   9.2945837   9.3908225   9.3330205   9.3028416   9.3311105   9.2449394
   9.4601098   9.3769151   9.3369084   9.6289430   9.2973827   9.5296572
   9.4160290   9.3315801   9.6772199   9.2024057   9.0431195   9.2667449
   9.1654694   9.1037580   9.2036157   9.2162725   9.1741220   9.0455889
   9.1724337   9.1178571   9.1667966   9.0916434   9.0777698   9.1571849
   9.2058443   9.0316251   9.0332372   8.9778500   9.2321915   9.2248567
   9.2540250   9.1566437   9.1340910   9.1453171   9.2002490   9.2448176
   9.2479250   9.2517405   9.2314274   9.0871455   9.1635443   9.1509153
 SUMMED SPIN DENSITY           0.00000000
 TOTAL ATOMIC SPINS  :
   0.0000000   0.0000000   0.0000000   0.0000000   0.0000000   0.0000000
   0.0000000   0.0000000   0.0000000   0.0000000   0.0000000   0.0000000
   0.0000000   0.0000000   0.0000000   0.0000000   0.0000000   0.0000000
   0.0000000   0.0000000   0.0000000   0.0000000   0.0000000   0.0000000
   0.0000000   0.0000000   0.0000000   0.0000000   0.0000000   0.0000000
   0.0000000   0.0000000   0.0000000   0.0000000   0.0000000   0.0000000
   0.0000000   0.0000000   0.0000000   0.0000000   0.0000000   0.0000000
   0.0000000   0.0000000   0.0000000   0.0000000   0.0000000   0.0000000
   0.0000000   0.0000000   0.0000000   0.0000000   0.0000000   0.0000000
   0.0000000   0.0000000   0.0000000   0.0000000   0.0000000   0.0000000
   0.0000000   0.0000000   0.0000000   0.0000000   0.0000000   0.0000000
   0.0000000   0.0000000   0.0000000   0.0000000   0.0000000   0.0000000
   0.0000000   0.0000000   0.0000000   0.0000000   0.0000000   0.0000000
   0.0000000   0.0000000   0.0000000   0.0000000   0.0000000   0.0000000
   0.0000000   0.0000000   0.0000000   0.0000000   0.0000000   0.0000000
   0.0000000   0.0000000   0.0000000   0.0000000   0.0000000   0.0000000
 TTTTTTTTTTTTTTTTTTTTTTTTTTTTTT MOQGAD      TELAPSE    41676.35 TCPU    40330.51
 WARNING **** GENBUD **** COUL. BIPO BUFFER TOO SMALL - TO AVOID I/O SET BIPOSIZE =     3862650
 TTTTTTTTTTTTTTTTTTTTTTTTTTTTTT SHELLX      TELAPSE    41968.87 TCPU    40618.57
 TTTTTTTTTTTTTTTTTTTTTTTTTTTTTT MONMO3      TELAPSE    41997.54 TCPU    40647.20
 NUMERICALLY INTEGRATED DENSITY    447.9999981591    447.9999981591
 TTTTTTTTTTTTTTTTTTTTTTTTTTTTTT NUMDFT      TELAPSE    42005.12 TCPU    40654.68
 CYC  74 ETOT(AU) -6.385005399736E+03 DETOT -4.14E-07 tst  8.83E-12 PX  7.05E-05
 TTTTTTTTTTTTTTTTTTTTTTTTTTTTTT FDIK        TELAPSE    42100.32 TCPU    40743.19

    ALPHA      ELECTRONS
 INSULATING STATE
 TOP OF VALENCE BANDS -    BAND    448; K    8; EIG -1.3068306E-01 AU
 TOP OF VALENCE BANDS -    BAND    448; K    1; EIG -1.3175506E-01 AU
 BOTTOM OF VIRTUAL BANDS - BAND    449; K    6; EIG  6.9379638E-02 AU
 BOTTOM OF VIRTUAL BANDS - BAND    449; K    1; EIG  7.2519581E-02 AU

    BETA       ELECTRONS
 INSULATING STATE
 TOP OF VALENCE BANDS -    BAND    448; K    8; EIG -1.3068306E-01 AU
 TOP OF VALENCE BANDS -    BAND    448; K    1; EIG -1.3175506E-01 AU
 BOTTOM OF VIRTUAL BANDS - BAND    449; K    6; EIG  6.9379638E-02 AU
 BOTTOM OF VIRTUAL BANDS - BAND    449; K    1; EIG  7.2519581E-02 AU
 TTTTTTTTTTTTTTTTTTTTTTTTTTTTTT PDIG        TELAPSE    42178.70 TCPU    40817.90
 CHARGE NORMALIZATION FACTOR   1.00000000
 TOTAL ATOMIC CHARGES:
   9.3713686   9.3138291   9.4590025   9.4264637   9.4877706   9.3979072
   9.4261842   9.3478578   9.5091864   9.6467879   9.5880033   9.3304306
   9.3779047   9.3951676   9.5251747   9.3656936   9.3314782   9.3484685
   9.3434640   9.5352032   9.5984550   9.4641810   9.3673407   9.5343088
   9.3227190   9.3032318   9.3828460   9.5445952   9.2936527   9.3859837
   9.4997339   9.3397521   9.4014752   9.3192371   9.4685393   9.3779771
   9.5064571   9.4996680   9.5239100   9.4368870   9.4670174   9.5463115
   9.3741109   9.6279971   9.3046558   9.4711148   9.5191370   9.4613337
   9.2945954   9.3908468   9.3330403   9.3028687   9.3311218   9.2449612
   9.4600939   9.3769402   9.3369231   9.6289425   9.2973916   9.5296510
   9.4160138   9.3316095   9.6772099   9.2024298   9.0431281   9.2667105
   9.1654645   9.1037531   9.2035993   9.2162276   9.1740915   9.0455765
   9.1724586   9.1178558   9.1667687   9.0916221   9.0777451   9.1571850
   9.2058363   9.0316027   9.0332514   8.9778522   9.2321700   9.2248241
   9.2539925   9.1566395   9.1340382   9.1452702   9.2002512   9.2448309
   9.2479044   9.2517609   9.2314041   9.0871282   9.1635421   9.1508999
 SUMMED SPIN DENSITY           0.00000000
 TOTAL ATOMIC SPINS  :
   0.0000000   0.0000000   0.0000000   0.0000000   0.0000000   0.0000000
   0.0000000   0.0000000   0.0000000   0.0000000   0.0000000   0.0000000
   0.0000000   0.0000000   0.0000000   0.0000000   0.0000000   0.0000000
   0.0000000   0.0000000   0.0000000   0.0000000   0.0000000   0.0000000
   0.0000000   0.0000000   0.0000000   0.0000000   0.0000000   0.0000000
   0.0000000   0.0000000   0.0000000   0.0000000   0.0000000   0.0000000
   0.0000000   0.0000000   0.0000000   0.0000000   0.0000000   0.0000000
   0.0000000   0.0000000   0.0000000   0.0000000   0.0000000   0.0000000
   0.0000000   0.0000000   0.0000000   0.0000000   0.0000000   0.0000000
   0.0000000   0.0000000   0.0000000   0.0000000   0.0000000   0.0000000
   0.0000000   0.0000000   0.0000000   0.0000000   0.0000000   0.0000000
   0.0000000   0.0000000   0.0000000   0.0000000   0.0000000   0.0000000
   0.0000000   0.0000000   0.0000000   0.0000000   0.0000000   0.0000000
   0.0000000   0.0000000   0.0000000   0.0000000   0.0000000   0.0000000
   0.0000000   0.0000000   0.0000000   0.0000000   0.0000000   0.0000000
   0.0000000   0.0000000   0.0000000   0.0000000   0.0000000   0.0000000
 TTTTTTTTTTTTTTTTTTTTTTTTTTTTTT MOQGAD      TELAPSE    42179.24 TCPU    40818.41
 WARNING **** GENBUD **** COUL. BIPO BUFFER TOO SMALL - TO AVOID I/O SET BIPOSIZE =     3862650
 TTTTTTTTTTTTTTTTTTTTTTTTTTTTTT SHELLX      TELAPSE    42467.23 TCPU    41104.04
 TTTTTTTTTTTTTTTTTTTTTTTTTTTTTT MONMO3      TELAPSE    42501.42 TCPU    41138.17
 NUMERICALLY INTEGRATED DENSITY    447.9999981636    447.9999981636
 TTTTTTTTTTTTTTTTTTTTTTTTTTTTTT NUMDFT      TELAPSE    42508.98 TCPU    41145.67
 CYC  75 ETOT(AU) -6.385005399937E+03 DETOT -2.01E-07 tst  8.02E-12 PX  6.65E-05
 TTTTTTTTTTTTTTTTTTTTTTTTTTTTTT FDIK        TELAPSE    42605.95 TCPU    41235.75

    ALPHA      ELECTRONS
 INSULATING STATE
 TOP OF VALENCE BANDS -    BAND    448; K    8; EIG -1.3069635E-01 AU
 TOP OF VALENCE BANDS -    BAND    448; K    1; EIG -1.3176818E-01 AU
 BOTTOM OF VIRTUAL BANDS - BAND    449; K    6; EIG  6.9404145E-02 AU
 BOTTOM OF VIRTUAL BANDS - BAND    449; K    1; EIG  7.2544130E-02 AU

    BETA       ELECTRONS
 INSULATING STATE
 TOP OF VALENCE BANDS -    BAND    448; K    8; EIG -1.3069635E-01 AU
 TOP OF VALENCE BANDS -    BAND    448; K    1; EIG -1.3176818E-01 AU
 BOTTOM OF VIRTUAL BANDS - BAND    449; K    6; EIG  6.9404145E-02 AU
 BOTTOM OF VIRTUAL BANDS - BAND    449; K    1; EIG  7.2544130E-02 AU
 TTTTTTTTTTTTTTTTTTTTTTTTTTTTTT PDIG        TELAPSE    42681.92 TCPU    41309.07
 CHARGE NORMALIZATION FACTOR   1.00000000
 TOTAL ATOMIC CHARGES:
   9.3713702   9.3138521   9.4590130   9.4264617   9.4877666   9.3979102
   9.4261856   9.3478827   9.5091845   9.6467699   9.5880250   9.3304394
   9.3779316   9.3951722   9.5251762   9.3656834   9.3314927   9.3484867
   9.3434885   9.5351978   9.5984596   9.4641838   9.3673514   9.5343038
   9.3227320   9.3032608   9.3828536   9.5445951   9.2936827   9.3859860
   9.4997209   9.3397697   9.4014796   9.3192491   9.4685324   9.3780022
   9.5064440   9.4996446   9.5239160   9.4368814   9.4670144   9.5463137
   9.3741162   9.6280002   9.3046724   9.4711168   9.5191371   9.4613124
   9.2946058   9.3908695   9.3330587   9.3028946   9.3311328   9.2449812
   9.4600788   9.3769636   9.3369368   9.6289420   9.2974003   9.5296453
   9.4160000   9.3316371   9.6772004   9.2024523   9.0431363   9.2666778
   9.1654596   9.1037478   9.2035838   9.2161857   9.1740628   9.0455648
   9.1724826   9.1178539   9.1667430   9.0916015   9.0777220   9.1571852
   9.2058292   9.0315821   9.0332656   8.9778541   9.2321501   9.2247937
   9.2539624   9.1566355   9.1339887   9.1452261   9.2002538   9.2448437
   9.2478853   9.2517805   9.2313830   9.0871120   9.1635403   9.1508859
 SUMMED SPIN DENSITY           0.00000000
 TOTAL ATOMIC SPINS  :
   0.0000000   0.0000000   0.0000000   0.0000000   0.0000000   0.0000000
   0.0000000   0.0000000   0.0000000   0.0000000   0.0000000   0.0000000
   0.0000000   0.0000000   0.0000000   0.0000000   0.0000000   0.0000000
   0.0000000   0.0000000   0.0000000   0.0000000   0.0000000   0.0000000
   0.0000000   0.0000000   0.0000000   0.0000000   0.0000000   0.0000000
   0.0000000   0.0000000   0.0000000   0.0000000   0.0000000   0.0000000
   0.0000000   0.0000000   0.0000000   0.0000000   0.0000000   0.0000000
   0.0000000   0.0000000   0.0000000   0.0000000   0.0000000   0.0000000
   0.0000000   0.0000000   0.0000000   0.0000000   0.0000000   0.0000000
   0.0000000   0.0000000   0.0000000   0.0000000   0.0000000   0.0000000
   0.0000000   0.0000000   0.0000000   0.0000000   0.0000000   0.0000000
   0.0000000   0.0000000   0.0000000   0.0000000   0.0000000   0.0000000
   0.0000000   0.0000000   0.0000000   0.0000000   0.0000000   0.0000000
   0.0000000   0.0000000   0.0000000   0.0000000   0.0000000   0.0000000
   0.0000000   0.0000000   0.0000000   0.0000000   0.0000000   0.0000000
   0.0000000   0.0000000   0.0000000   0.0000000   0.0000000   0.0000000
 TTTTTTTTTTTTTTTTTTTTTTTTTTTTTT MOQGAD      TELAPSE    42682.49 TCPU    41309.63
 WARNING **** GENBUD **** COUL. BIPO BUFFER TOO SMALL - TO AVOID I/O SET BIPOSIZE =     3862650
 TTTTTTTTTTTTTTTTTTTTTTTTTTTTTT SHELLX      TELAPSE    42973.82 TCPU    41596.26
 TTTTTTTTTTTTTTTTTTTTTTTTTTTTTT MONMO3      TELAPSE    43004.08 TCPU    41626.48
 NUMERICALLY INTEGRATED DENSITY    447.9999981680    447.9999981680
 TTTTTTTTTTTTTTTTTTTTTTTTTTTTTT NUMDFT      TELAPSE    43011.79 TCPU    41634.15
 CYC  76 ETOT(AU) -6.385005399976E+03 DETOT -3.93E-08 tst  7.29E-12 PX  6.27E-05
 TTTTTTTTTTTTTTTTTTTTTTTTTTTTTT FDIK        TELAPSE    43101.31 TCPU    41715.81

    ALPHA      ELECTRONS
 INSULATING STATE
 TOP OF VALENCE BANDS -    BAND    448; K    8; EIG -1.3070903E-01 AU
 TOP OF VALENCE BANDS -    BAND    448; K    1; EIG -1.3178070E-01 AU
 BOTTOM OF VIRTUAL BANDS - BAND    449; K    6; EIG  6.9427266E-02 AU
 BOTTOM OF VIRTUAL BANDS - BAND    449; K    1; EIG  7.2567291E-02 AU

    BETA       ELECTRONS
 INSULATING STATE
 TOP OF VALENCE BANDS -    BAND    448; K    8; EIG -1.3070903E-01 AU
 TOP OF VALENCE BANDS -    BAND    448; K    1; EIG -1.3178070E-01 AU
 BOTTOM OF VIRTUAL BANDS - BAND    449; K    6; EIG  6.9427266E-02 AU
 BOTTOM OF VIRTUAL BANDS - BAND    449; K    1; EIG  7.2567291E-02 AU
 TTTTTTTTTTTTTTTTTTTTTTTTTTTTTT PDIG        TELAPSE    43193.90 TCPU    41803.75
 CHARGE NORMALIZATION FACTOR   1.00000000
 TOTAL ATOMIC CHARGES:
   9.3713712   9.3138736   9.4590229   9.4264594   9.4877626   9.3979127
   9.4261867   9.3479054   9.5091826   9.6467525   9.5880454   9.3304479
   9.3779572   9.3951762   9.5251776   9.3656731   9.3315059   9.3485035
   9.3435115   9.5351925   9.5984636   9.4641861   9.3673612   9.5342988
   9.3227441   9.3032881   9.3828606   9.5445944   9.2937102   9.3859879
   9.4997079   9.3397864   9.4014837   9.3192602   9.4685257   9.3780255
   9.5064312   9.4996216   9.5239215   9.4368758   9.4670109   9.5463152
   9.3741205   9.6280031   9.3046876   9.4711183   9.5191370   9.4612916
   9.2946156   9.3908911   9.3330759   9.3029184   9.3311425   9.2449999
   9.4600644   9.3769858   9.3369493   9.6289417   9.2974074   9.5296395
   9.4159862   9.3316626   9.6771915   9.2024728   9.0431449   9.2666481
   9.1654552   9.1037438   9.2035701   9.2161466   9.1740358   9.0455535
   9.1725057   9.1178535   9.1667190   9.0915832   9.0777010   9.1571865
   9.2058234   9.0315629   9.0332790   8.9778567   9.2321321   9.2247655
   9.2539341   9.1566332   9.1339414   9.1451848   9.2002568   9.2448569
   9.2478684   9.2518002   9.2313635   9.0870978   9.1635397   9.1508734
 SUMMED SPIN DENSITY           0.00000000
 TOTAL ATOMIC SPINS  :
   0.0000000   0.0000000   0.0000000   0.0000000   0.0000000   0.0000000
   0.0000000   0.0000000   0.0000000   0.0000000   0.0000000   0.0000000
   0.0000000   0.0000000   0.0000000   0.0000000   0.0000000   0.0000000
   0.0000000   0.0000000   0.0000000   0.0000000   0.0000000   0.0000000
   0.0000000   0.0000000   0.0000000   0.0000000   0.0000000   0.0000000
   0.0000000   0.0000000   0.0000000   0.0000000   0.0000000   0.0000000
   0.0000000   0.0000000   0.0000000   0.0000000   0.0000000   0.0000000
   0.0000000   0.0000000   0.0000000   0.0000000   0.0000000   0.0000000
   0.0000000   0.0000000   0.0000000   0.0000000   0.0000000   0.0000000
   0.0000000   0.0000000   0.0000000   0.0000000   0.0000000   0.0000000
   0.0000000   0.0000000   0.0000000   0.0000000   0.0000000   0.0000000
   0.0000000   0.0000000   0.0000000   0.0000000   0.0000000   0.0000000
   0.0000000   0.0000000   0.0000000   0.0000000   0.0000000   0.0000000
   0.0000000   0.0000000   0.0000000   0.0000000   0.0000000   0.0000000
   0.0000000   0.0000000   0.0000000   0.0000000   0.0000000   0.0000000
   0.0000000   0.0000000   0.0000000   0.0000000   0.0000000   0.0000000
 TTTTTTTTTTTTTTTTTTTTTTTTTTTTTT MOQGAD      TELAPSE    43194.39 TCPU    41804.24
 WARNING **** GENBUD **** COUL. BIPO BUFFER TOO SMALL - TO AVOID I/O SET BIPOSIZE =     3862650
 TTTTTTTTTTTTTTTTTTTTTTTTTTTTTT SHELLX      TELAPSE    43479.62 TCPU    42088.69
 +++ ENERGIES IN A.U. +++
 ::: EXT EL-POLE                                  -2.3982381099371E+04
 ::: EXT EL-SPHEROPOLE                             2.4975631689006E+02
 ::: BIELET ZONE E-E                               2.5011585278232E+04
 ::: TOTAL E-E                                     1.2789604957512E+03
 ::: TOTAL E-N + N-E                              -9.5985722843235E+03
 ::: TOTAL N-N                                    -2.7521217692655E+03
 ::: KINETIC ENERGY                                5.2912840658158E+03
 ::: PSEUDO TOTAL   ENERGY                        -5.7804494920220E+03
 ::: VIRIAL COEFFICIENT                            9.5581853341657E-01
 TTTTTTTTTTTTTTTTTTTTTTTTTTTTTT MONMO3      TELAPSE    43518.41 TCPU    42127.41
 NUMERICALLY INTEGRATED DENSITY    447.9999981721    447.9999981721
 TTTTTTTTTTTTTTTTTTTTTTTTTTTTTT NUMDFT      TELAPSE    43526.20 TCPU    42134.93
 CYC  77 ETOT(AU) -6.385005399855E+03 DETOT  1.21E-07 tst  6.63E-12 PX  6.27E-05

 == SCF ENDED - CONVERGENCE ON ENERGY      E(AU) -6.3850053998551E+03 CYCLES  77


 ENERGY EXPRESSION=HARTREE+FOCK EXCH*0.20000+(BECKE  EXCH)*0.80000+LYP    CORR

 FINITE TEMPERATURE DFT CALCULATION 
 TEMPERATURE      (T)    1.000000000000E-13 HARTREE 
 ENERGY           (E)   -6.385005399855E+03
 FREE ENERGY      (F)   -6.385005399855E+03
 ELECTRON ENTROPY (S)    0.000000000000E+00
 (E(T)+F(T))/2    (E0)  -6.385005399855E+03


 TOTAL ENERGY(DFT)(AU)( 77) -6.3850053998551E+03 DE 1.2E-07 tester 6.6E-12
 TTTTTTTTTTTTTTTTTTTTTTTTTTTTTT EDFT        TELAPSE    43574.20 TCPU    42182.50
 EIGENVECTORS IN FORTRAN UNIT 10
 TTTTTTTTTTTTTTTTTTTTTTTTTTTTTT END         TELAPSE    43619.45 TCPU    42224.93
 EEEEEEEEEE TERMINATION  DATE 22 07 2015 TIME 09:25:52.9
NODE    0 CPU TIME =     42224.935
    TOTAL CPU TIME =   6054534.461
