--------------------------------------------------------------------------
WARNING: Open MPI will create a shared memory backing file in a
directory that appears to be mounted on a network filesystem.
Creating the shared memory backup file on a network file system, such
as NFS or Lustre is not recommended -- it may cause excessive network
traffic to your file servers and/or cause shared memory traffic in
Open MPI to be much slower than expected.

You may want to check what the typical temporary directory is on your
node.  Possible sources of the location of this temporary directory
include the $TEMPDIR, $TEMP, and $TMP environment variables.

Note, too, that system administrators can set a list of filesystems
where Open MPI is disallowed from creating temporary files by settings
the MCA parameter "orte_no_session_dir".

  Local host: r2i4n8
  Fileame:    /ichec/work/scratch/tmp/586735/openmpi-sessions-emehes@r2i4n8_0/13978/1/shared_mem_pool.r2i4n8

You can set the MCA paramter shmem_mmap_enable_nfs_warning to 0 to
disable this message.
--------------------------------------------------------------------------
         192 PROCESSORS WORKING

         
 *******************************************************************************
 *                                                                             *
 *                                CRYSTAL09                                    *
 *                              public : 2.0                                   *
 *                      December 10th, 2012 - parallel executable              *
 *                                                                             *
 *                                                                             *
 *                                                                             *
 *                              MAIN AUTHORS                                   *
 *                                                                             *
 *    R. DOVESI(1,10), V.R. SAUNDERS(2), C. ROETTI(1,10), R. ORLANDO (1,3),    *
 *  C.M. ZICOVICH-WILSON(1,4), F. PASCALE(5), B. CIVALLERI(1,10), K. DOLL(6),  *
 *       N.M. HARRISON(2,7), I. J. BUSH(2), Ph. D'ARCO(8), M. LLUNELL(9)       *
 *                                                                             *
 * (1) THEORETICAL CHEMISTRY GROUP - UNIVERSITA' DI TORINO - TORINO (ITALY)    *
 *      http://www.crystal.unito.it                                            *
 * (2) COMPUTATIONAL SCIENCE & ENGINEERING DEPARTMENT - STFC DARESBURY LABORATO*Y (UK)
 *     http://www.cse.stfc.ac.uk/cmg/CRYSTAL/                                  *
 * (3) UNIVERSITA' DEL PIEMONTE ORIENTALE - ALESSANDRIA (ITALY)                *
 * (4) UNIVERSIDAD AUTONOMA DEL ESTADO DE MORELOS - CUERNAVACA (MEXICO)        *
 * (5) UNIVERSITE' HENRI POINCARE' - NANCY (FRANCE)                            *
 * (6) MPI FUER FESTKOERPERFORSCHUNG - STUTTGART (GERMANY)                     *
 * (7) IMPERIAL COLLEGE - LONDON (UK)                                          *
 * (8) UNIVERSITE' PIERRE ET MARIE CURIE - PARIS (FRANCE)                      *
 * (9) UNIVERSIDAD DE BARCELONA - BARCELONA (SPAIN)                            *
 *(10) NIS - NANOSTRUCTURED INTERFACES AND SURFACES - TORINO (ITALY)           *
 *     http://www.crystal.unito.it                                             *
 *******************************************************************************
 EEEEEEEEEE STARTING  DATE 28 07 2015 TIME 20:45:18.4
 Created with astools                                                            

 CRYSTAL CALCULATION
 (INPUT ACCORDING TO THE INTERNATIONAL TABLES FOR X-RAY CRYSTALLOGRAPHY)
 CRYSTAL FAMILY                       :  TRICLINIC   
 CRYSTAL CLASS  (GROTH - 1921)        :  TRICLINIC PEDIAL                     

 SPACE GROUP (NONCENTROSYMMETRIC)     :  P 1             

 LATTICE PARAMETERS  (ANGSTROMS AND DEGREES) - CONVENTIONAL CELL
        A           B           C        ALPHA        BETA       GAMMA
    10.47450    10.89142    10.88097    90.00000    90.00000    90.00000


 NUMBER OF IRREDUCIBLE ATOMS IN THE CONVENTIONAL CELL:   84

 INPUT COORDINATES

 ATOM AT. N.              COORDINATES
   1   8     6.377240000000E-01  8.202830000000E-01  1.514590000000E-01
   2   8     5.603230000000E-01  3.873800000000E-02  7.903880000000E-01
   3   8     9.173190000000E-01  2.181160000000E-01  5.033410000000E-01
   4   8     8.180510000000E-01  6.083800000000E-01  8.434670000000E-01
   5   8     5.526520000000E-01  8.952530000000E-01  5.898240000000E-01
   6   8     3.233320000000E-01  8.897000000000E-02  8.780800000000E-01
   7   8     8.979900000000E-02  1.865150000000E-01  3.262490000000E-01
   8   8     5.469100000000E-02  4.760670000000E-01  8.497020000000E-01
   9   8     1.888540000000E-01  8.377500000000E-01  8.545000000000E-02
  10   8     5.833060000000E-01  9.286210000000E-01  3.542420000000E-01
  11   8     2.898990000000E-01  8.430000000000E-04  4.934750000000E-01
  12   8     7.121910000000E-01  3.863360000000E-01  1.111010000000E-01
  13   8     9.521060000000E-01  4.519770000000E-01  9.018300000000E-02
  14   8     5.637350000000E-01  2.200630000000E-01  2.053260000000E-01
  15   8     5.878660000000E-01  5.927100000000E-01  7.322820000000E-01
  16   8     4.822700000000E-01  1.506000000000E-03  1.310610000000E-01
  17   8     2.818880000000E-01  4.030510000000E-01  9.415550000000E-01
  18   8     3.559790000000E-01  6.594610000000E-01  6.463390000000E-01
  19   8     8.369540000000E-01  3.725840000000E-01  8.916600000000E-01
  20   8     2.346610000000E-01  3.319150000000E-01  1.705250000000E-01
  21   8     2.314450000000E-01  3.860430000000E-01  7.058110000000E-01
  22   8     8.190470000000E-01  6.659030000000E-01  9.933500000000E-02
  23   8     4.078900000000E-02 -3.428000000000E-03  4.853620000000E-01
  24   8     2.317200000000E-02  6.171960000000E-01  2.412420000000E-01
  25   8     3.331020000000E-01  1.473100000000E-01  3.040520000000E-01
  26   8     1.176720000000E-01  2.358130000000E-01  8.657690000000E-01
  27   8     3.109280000000E-01  2.480870000000E-01  5.255470000000E-01
  28   8     2.627100000000E-01  5.857690000000E-01  8.835100000000E-02
  29   8     9.113470000000E-01  4.853230000000E-01  6.589100000000E-01
  30   8     8.599150000000E-01  7.890600000000E-01  3.047210000000E-01
  31   8     7.523590000000E-01  3.047600000000E-02  5.267850000000E-01
  32   8     7.894130000000E-01  6.958190000000E-01  6.221910000000E-01
  33   8     7.830460000000E-01  5.133380000000E-01  4.555370000000E-01
  34   8     1.611090000000E-01  8.053200000000E-02  6.852770000000E-01
  35   8     5.109410000000E-01  1.143550000000E-01  4.820990000000E-01
  36   8     4.412650000000E-01  2.502880000000E-01  7.447830000000E-01
  37   8     3.871500000000E-01  8.106730000000E-01  2.468620000000E-01
  38   8     1.828260000000E-01  9.177700000000E-02  1.166930000000E-01
  39   8     9.585560000000E-01  9.742530000000E-01  9.876600000000E-02
  40   8     4.093680000000E-01  8.524120000000E-01  7.838840000000E-01
  41   8     1.863810000000E-01  8.429370000000E-01  6.517200000000E-01
  42   8     5.305110000000E-01  1.865070000000E-01  9.723150000000E-01
  43   8     1.036440000000E-01  9.908370000000E-01  9.047290000000E-01
  44   8     7.205470000000E-01  6.270000000000E-02  9.518700000000E-02
  45   8     3.962500000000E-02  6.674550000000E-01  2.005000000000E-03
  46   8     5.871020000000E-01  4.174150000000E-01  3.325750000000E-01
  47   8     6.610300000000E-01  6.338280000000E-01  2.816960000000E-01
  48   8     4.488620000000E-01  4.367370000000E-01  5.993050000000E-01
  49   8     8.757970000000E-01  7.926000000000E-02  2.958130000000E-01
  50   8     5.507600000000E-01  6.140460000000E-01  4.895400000000E-01
  51   8     9.861420000000E-01  6.582500000000E-01  4.801280000000E-01
  52   8     4.603040000000E-01  4.329670000000E-01  1.201290000000E-01
  53   8     2.386760000000E-01  7.073110000000E-01  8.625360000000E-01
  54   8     6.623240000000E-01  8.127320000000E-01  8.000180000000E-01
  55   8     1.287620000000E-01  8.038860000000E-01  3.332360000000E-01
  56   8     9.030110000000E-01  2.187850000000E-01  8.352400000000E-02
  57  14     9.735320000000E-01  1.177070000000E-01  4.105280000000E-01
  58  14     5.502790000000E-01  8.996380000000E-01  7.387700000000E-01
  59  14     6.442420000000E-01  5.413760000000E-01  3.950560000000E-01
  60  14     1.046850000000E-01  9.795350000000E-01  5.231800000000E-02
  61  14     9.560160000000E-01  5.986270000000E-01  1.082360000000E-01
  62  14     5.755440000000E-01  1.171050000000E-01  9.828200000000E-02
  63  14     8.707590000000E-01  5.869030000000E-01  5.545060000000E-01
  64  14     8.635330000000E-01  8.701600000000E-02  1.481650000000E-01
  65  14     3.093810000000E-01  4.356660000000E-01  8.514200000000E-02
  66  14     2.401550000000E-01  8.612190000000E-01  2.457570000000E-01
  67  14     4.847320000000E-01  5.787580000000E-01  6.199160000000E-01
  68  14     9.954660000000E-01  7.218340000000E-01  3.447740000000E-01
  69  14     3.617860000000E-01  1.283230000000E-01  4.505570000000E-01
  70  14     1.766970000000E-01  1.018170000000E-01  8.306560000000E-01
  71  14     9.031770000000E-01  4.841130000000E-01  8.096400000000E-01
  72  14     5.813200000000E-01  3.674450000000E-01  1.915480000000E-01
  73  14     7.468330000000E-01  7.336740000000E-01  2.121850000000E-01
  74  14     3.583290000000E-01  3.266550000000E-01  6.435500000000E-01
  75  14     1.690390000000E-01  3.757030000000E-01  8.412160000000E-01
  76  14     1.910820000000E-01  6.888900000000E-01  1.001906000000E+00
  77  14     2.064610000000E-01  1.938990000000E-01  2.298660000000E-01
  78  14     5.227640000000E-01  8.902090000000E-01  2.247390000000E-01
  79  14     4.641720000000E-01  1.421470000000E-01  8.440640000000E-01
  80  14     1.626630000000E-01  9.757970000000E-01  5.777160000000E-01
  81  14     7.149190000000E-01  6.795760000000E-01  7.534080000000E-01
  82  14     8.464920000000E-01  3.528740000000E-01  4.227300000000E-02
  83  14     2.947480000000E-01  7.672010000000E-01  7.320980000000E-01
  84  14     6.100590000000E-01  9.967510000000E-01  4.883830000000E-01

 *******************************************************************************

 << INFORMATION >>: FROM NOW ON, ALL COORDINATES REFER TO THE PRIMITIVE CELL

 *******************************************************************************

 LATTICE PARAMETERS  (ANGSTROMS AND DEGREES) - PRIMITIVE CELL
       A          B          C         ALPHA     BETA     GAMMA        VOLUME
   10.47450   10.89142   10.88097    90.00000  90.00000  90.00000   1241.325322

 COORDINATES OF THE EQUIVALENT ATOMS (FRACTIONAL UNITS)

 N. ATOM EQUIV AT. N.          X                  Y                  Z

   1   1   1    8 O    -3.62276000000E-01 -1.79717000000E-01  1.51459000000E-01

   2   2   1    8 O    -4.39677000000E-01  3.87380000000E-02 -2.09612000000E-01

   3   3   1    8 O    -8.26810000000E-02  2.18116000000E-01 -4.96659000000E-01

   4   4   1    8 O    -1.81949000000E-01 -3.91620000000E-01 -1.56533000000E-01

   5   5   1    8 O    -4.47348000000E-01 -1.04747000000E-01 -4.10176000000E-01

   6   6   1    8 O     3.23332000000E-01  8.89700000000E-02 -1.21920000000E-01

   7   7   1    8 O     8.97990000000E-02  1.86515000000E-01  3.26249000000E-01

   8   8   1    8 O     5.46910000000E-02  4.76067000000E-01 -1.50298000000E-01

   9   9   1    8 O     1.88854000000E-01 -1.62250000000E-01  8.54500000000E-02

  10  10   1    8 O    -4.16694000000E-01 -7.13790000000E-02  3.54242000000E-01

  11  11   1    8 O     2.89899000000E-01  8.43000000000E-04  4.93475000000E-01

  12  12   1    8 O    -2.87809000000E-01  3.86336000000E-01  1.11101000000E-01

  13  13   1    8 O    -4.78940000000E-02  4.51977000000E-01  9.01830000000E-02

  14  14   1    8 O    -4.36265000000E-01  2.20063000000E-01  2.05326000000E-01

  15  15   1    8 O    -4.12134000000E-01 -4.07290000000E-01 -2.67718000000E-01

  16  16   1    8 O     4.82270000000E-01  1.50600000000E-03  1.31061000000E-01

  17  17   1    8 O     2.81888000000E-01  4.03051000000E-01 -5.84450000000E-02

  18  18   1    8 O     3.55979000000E-01 -3.40539000000E-01 -3.53661000000E-01

  19  19   1    8 O    -1.63046000000E-01  3.72584000000E-01 -1.08340000000E-01

  20  20   1    8 O     2.34661000000E-01  3.31915000000E-01  1.70525000000E-01

  21  21   1    8 O     2.31445000000E-01  3.86043000000E-01 -2.94189000000E-01

  22  22   1    8 O    -1.80953000000E-01 -3.34097000000E-01  9.93350000000E-02

  23  23   1    8 O     4.07890000000E-02 -3.42800000000E-03  4.85362000000E-01

  24  24   1    8 O     2.31720000000E-02 -3.82804000000E-01  2.41242000000E-01

  25  25   1    8 O     3.33102000000E-01  1.47310000000E-01  3.04052000000E-01

  26  26   1    8 O     1.17672000000E-01  2.35813000000E-01 -1.34231000000E-01

  27  27   1    8 O     3.10928000000E-01  2.48087000000E-01 -4.74453000000E-01

  28  28   1    8 O     2.62710000000E-01 -4.14231000000E-01  8.83510000000E-02

  29  29   1    8 O    -8.86530000000E-02  4.85323000000E-01 -3.41090000000E-01

  30  30   1    8 O    -1.40085000000E-01 -2.10940000000E-01  3.04721000000E-01

  31  31   1    8 O    -2.47641000000E-01  3.04760000000E-02 -4.73215000000E-01

  32  32   1    8 O    -2.10587000000E-01 -3.04181000000E-01 -3.77809000000E-01

  33  33   1    8 O    -2.16954000000E-01 -4.86662000000E-01  4.55537000000E-01

  34  34   1    8 O     1.61109000000E-01  8.05320000000E-02 -3.14723000000E-01

  35  35   1    8 O    -4.89059000000E-01  1.14355000000E-01  4.82099000000E-01

  36  36   1    8 O     4.41265000000E-01  2.50288000000E-01 -2.55217000000E-01

  37  37   1    8 O     3.87150000000E-01 -1.89327000000E-01  2.46862000000E-01

  38  38   1    8 O     1.82826000000E-01  9.17770000000E-02  1.16693000000E-01

  39  39   1    8 O    -4.14440000000E-02 -2.57470000000E-02  9.87660000000E-02

  40  40   1    8 O     4.09368000000E-01 -1.47588000000E-01 -2.16116000000E-01

  41  41   1    8 O     1.86381000000E-01 -1.57063000000E-01 -3.48280000000E-01

  42  42   1    8 O    -4.69489000000E-01  1.86507000000E-01 -2.76850000000E-02

  43  43   1    8 O     1.03644000000E-01 -9.16300000000E-03 -9.52710000000E-02

  44  44   1    8 O    -2.79453000000E-01  6.27000000000E-02  9.51870000000E-02

  45  45   1    8 O     3.96250000000E-02 -3.32545000000E-01  2.00500000000E-03

  46  46   1    8 O    -4.12898000000E-01  4.17415000000E-01  3.32575000000E-01

  47  47   1    8 O    -3.38970000000E-01 -3.66172000000E-01  2.81696000000E-01

  48  48   1    8 O     4.48862000000E-01  4.36737000000E-01 -4.00695000000E-01

  49  49   1    8 O    -1.24203000000E-01  7.92600000000E-02  2.95813000000E-01

  50  50   1    8 O    -4.49240000000E-01 -3.85954000000E-01  4.89540000000E-01

  51  51   1    8 O    -1.38580000000E-02 -3.41750000000E-01  4.80128000000E-01

  52  52   1    8 O     4.60304000000E-01  4.32967000000E-01  1.20129000000E-01

  53  53   1    8 O     2.38676000000E-01 -2.92689000000E-01 -1.37464000000E-01

  54  54   1    8 O    -3.37676000000E-01 -1.87268000000E-01 -1.99982000000E-01

  55  55   1    8 O     1.28762000000E-01 -1.96114000000E-01  3.33236000000E-01

  56  56   1    8 O    -9.69890000000E-02  2.18785000000E-01  8.35240000000E-02

  57  57   1   14 SI   -2.64680000000E-02  1.17707000000E-01  4.10528000000E-01

  58  58   1   14 SI   -4.49721000000E-01 -1.00362000000E-01 -2.61230000000E-01

  59  59   1   14 SI   -3.55758000000E-01 -4.58624000000E-01  3.95056000000E-01

  60  60   1   14 SI    1.04685000000E-01 -2.04650000000E-02  5.23180000000E-02

  61  61   1   14 SI   -4.39840000000E-02 -4.01373000000E-01  1.08236000000E-01

  62  62   1   14 SI   -4.24456000000E-01  1.17105000000E-01  9.82820000000E-02

  63  63   1   14 SI   -1.29241000000E-01 -4.13097000000E-01 -4.45494000000E-01

  64  64   1   14 SI   -1.36467000000E-01  8.70160000000E-02  1.48165000000E-01

  65  65   1   14 SI    3.09381000000E-01  4.35666000000E-01  8.51420000000E-02

  66  66   1   14 SI    2.40155000000E-01 -1.38781000000E-01  2.45757000000E-01

  67  67   1   14 SI    4.84732000000E-01 -4.21242000000E-01 -3.80084000000E-01

  68  68   1   14 SI   -4.53400000000E-03 -2.78166000000E-01  3.44774000000E-01

  69  69   1   14 SI    3.61786000000E-01  1.28323000000E-01  4.50557000000E-01

  70  70   1   14 SI    1.76697000000E-01  1.01817000000E-01 -1.69344000000E-01

  71  71   1   14 SI   -9.68230000000E-02  4.84113000000E-01 -1.90360000000E-01

  72  72   1   14 SI   -4.18680000000E-01  3.67445000000E-01  1.91548000000E-01

  73  73   1   14 SI   -2.53167000000E-01 -2.66326000000E-01  2.12185000000E-01

  74  74   1   14 SI    3.58329000000E-01  3.26655000000E-01 -3.56450000000E-01

  75  75   1   14 SI    1.69039000000E-01  3.75703000000E-01 -1.58784000000E-01

  76  76   1   14 SI    1.91082000000E-01 -3.11110000000E-01  1.90600000000E-03

  77  77   1   14 SI    2.06461000000E-01  1.93899000000E-01  2.29866000000E-01

  78  78   1   14 SI   -4.77236000000E-01 -1.09791000000E-01  2.24739000000E-01

  79  79   1   14 SI    4.64172000000E-01  1.42147000000E-01 -1.55936000000E-01

  80  80   1   14 SI    1.62663000000E-01 -2.42030000000E-02 -4.22284000000E-01

  81  81   1   14 SI   -2.85081000000E-01 -3.20424000000E-01 -2.46592000000E-01

  82  82   1   14 SI   -1.53508000000E-01  3.52874000000E-01  4.22730000000E-02

  83  83   1   14 SI    2.94748000000E-01 -2.32799000000E-01 -2.67902000000E-01

  84  84   1   14 SI   -3.89941000000E-01 -3.24900000000E-03  4.88383000000E-01

 NUMBER OF SYMMETRY OPERATORS         :    1
 *******************************************************************************
 * GEOMETRY EDITING - INPUT COORDINATES ARE GIVEN IN ANGSTROM         
 *******************************************************************************

 GCALCO - MAX INDICES DIRECT LATTICE VECTOR    15    14    15
 NO.OF VECTORS CREATED 6999 STARS 1051 RMAX   241.06088 BOHR

 GEOMETRY FOR WAVE FUNCTION - DIMENSIONALITY OF THE SYSTEM    3
 (NON PERIODIC DIRECTION: LATTICE PARAMETER FORMALLY SET TO 500)
 *******************************************************************************
 LATTICE PARAMETERS (ANGSTROMS AND DEGREES) - BOHR = 0.5291772083 ANGSTROM
 PRIMITIVE CELL - CENTRING CODE 1/0 VOLUME=  1241.325322 - DENSITY  2.246 g/cm^3
         A              B              C           ALPHA      BETA       GAMMA 
    10.47449700    10.89142300    10.88097500    90.000000  90.000000  90.000000
 *******************************************************************************
 ATOMS IN THE ASYMMETRIC UNIT   84 - ATOMS IN THE UNIT CELL:   84
     ATOM              X/A                 Y/B                 Z/C    
 *******************************************************************************
   1 T   8 O    -3.622760000000E-01 -1.797170000000E-01  1.514590000000E-01
   2 T   8 O    -4.396770000000E-01  3.873800000000E-02 -2.096120000000E-01
   3 T   8 O    -8.268100000000E-02  2.181160000000E-01 -4.966590000000E-01
   4 T   8 O    -1.819490000000E-01 -3.916200000000E-01 -1.565330000000E-01
   5 T   8 O    -4.473480000000E-01 -1.047470000000E-01 -4.101760000000E-01
   6 T   8 O     3.233320000000E-01  8.897000000000E-02 -1.219200000000E-01
   7 T   8 O     8.979900000000E-02  1.865150000000E-01  3.262490000000E-01
   8 T   8 O     5.469100000000E-02  4.760670000000E-01 -1.502980000000E-01
   9 T   8 O     1.888540000000E-01 -1.622500000000E-01  8.545000000000E-02
  10 T   8 O    -4.166940000000E-01 -7.137900000000E-02  3.542420000000E-01
  11 T   8 O     2.898990000000E-01  8.430000000000E-04  4.934750000000E-01
  12 T   8 O    -2.878090000000E-01  3.863360000000E-01  1.111010000000E-01
  13 T   8 O    -4.789400000000E-02  4.519770000000E-01  9.018300000000E-02
  14 T   8 O    -4.362650000000E-01  2.200630000000E-01  2.053260000000E-01
  15 T   8 O    -4.121340000000E-01 -4.072900000000E-01 -2.677180000000E-01
  16 T   8 O     4.822700000000E-01  1.506000000000E-03  1.310610000000E-01
  17 T   8 O     2.818880000000E-01  4.030510000000E-01 -5.844500000000E-02
  18 T   8 O     3.559790000000E-01 -3.405390000000E-01 -3.536610000000E-01
  19 T   8 O    -1.630460000000E-01  3.725840000000E-01 -1.083400000000E-01
  20 T   8 O     2.346610000000E-01  3.319150000000E-01  1.705250000000E-01
  21 T   8 O     2.314450000000E-01  3.860430000000E-01 -2.941890000000E-01
  22 T   8 O    -1.809530000000E-01 -3.340970000000E-01  9.933500000000E-02
  23 T   8 O     4.078900000000E-02 -3.428000000000E-03  4.853620000000E-01
  24 T   8 O     2.317200000000E-02 -3.828040000000E-01  2.412420000000E-01
  25 T   8 O     3.331020000000E-01  1.473100000000E-01  3.040520000000E-01
  26 T   8 O     1.176720000000E-01  2.358130000000E-01 -1.342310000000E-01
  27 T   8 O     3.109280000000E-01  2.480870000000E-01 -4.744530000000E-01
  28 T   8 O     2.627100000000E-01 -4.142310000000E-01  8.835100000000E-02
  29 T   8 O    -8.865300000000E-02  4.853230000000E-01 -3.410900000000E-01
  30 T   8 O    -1.400850000000E-01 -2.109400000000E-01  3.047210000000E-01
  31 T   8 O    -2.476410000000E-01  3.047600000000E-02 -4.732150000000E-01
  32 T   8 O    -2.105870000000E-01 -3.041810000000E-01 -3.778090000000E-01
  33 T   8 O    -2.169540000000E-01 -4.866620000000E-01  4.555370000000E-01
  34 T   8 O     1.611090000000E-01  8.053200000000E-02 -3.147230000000E-01
  35 T   8 O    -4.890590000000E-01  1.143550000000E-01  4.820990000000E-01
  36 T   8 O     4.412650000000E-01  2.502880000000E-01 -2.552170000000E-01
  37 T   8 O     3.871500000000E-01 -1.893270000000E-01  2.468620000000E-01
  38 T   8 O     1.828260000000E-01  9.177700000000E-02  1.166930000000E-01
  39 T   8 O    -4.144400000000E-02 -2.574700000000E-02  9.876600000000E-02
  40 T   8 O     4.093680000000E-01 -1.475880000000E-01 -2.161160000000E-01
  41 T   8 O     1.863810000000E-01 -1.570630000000E-01 -3.482800000000E-01
  42 T   8 O    -4.694890000000E-01  1.865070000000E-01 -2.768500000000E-02
  43 T   8 O     1.036440000000E-01 -9.163000000000E-03 -9.527100000000E-02
  44 T   8 O    -2.794530000000E-01  6.270000000000E-02  9.518700000000E-02
  45 T   8 O     3.962500000000E-02 -3.325450000000E-01  2.005000000000E-03
  46 T   8 O    -4.128980000000E-01  4.174150000000E-01  3.325750000000E-01
  47 T   8 O    -3.389700000000E-01 -3.661720000000E-01  2.816960000000E-01
  48 T   8 O     4.488620000000E-01  4.367370000000E-01 -4.006950000000E-01
  49 T   8 O    -1.242030000000E-01  7.926000000000E-02  2.958130000000E-01
  50 T   8 O    -4.492400000000E-01 -3.859540000000E-01  4.895400000000E-01
  51 T   8 O    -1.385800000000E-02 -3.417500000000E-01  4.801280000000E-01
  52 T   8 O     4.603040000000E-01  4.329670000000E-01  1.201290000000E-01
  53 T   8 O     2.386760000000E-01 -2.926890000000E-01 -1.374640000000E-01
  54 T   8 O    -3.376760000000E-01 -1.872680000000E-01 -1.999820000000E-01
  55 T   8 O     1.287620000000E-01 -1.961140000000E-01  3.332360000000E-01
  56 T   8 O    -9.698900000000E-02  2.187850000000E-01  8.352400000000E-02
  57 T  14 SI   -2.646800000000E-02  1.177070000000E-01  4.105280000000E-01
  58 T  14 SI   -4.497210000000E-01 -1.003620000000E-01 -2.612300000000E-01
  59 T  14 SI   -3.557580000000E-01 -4.586240000000E-01  3.950560000000E-01
  60 T  14 SI    1.046850000000E-01 -2.046500000000E-02  5.231800000000E-02
  61 T  14 SI   -4.398400000000E-02 -4.013730000000E-01  1.082360000000E-01
  62 T  14 SI   -4.244560000000E-01  1.171050000000E-01  9.828200000000E-02
  63 T  14 SI   -1.292410000000E-01 -4.130970000000E-01 -4.454940000000E-01
  64 T  14 SI   -1.364670000000E-01  8.701600000000E-02  1.481650000000E-01
  65 T  14 SI    3.093810000000E-01  4.356660000000E-01  8.514200000000E-02
  66 T  14 SI    2.401550000000E-01 -1.387810000000E-01  2.457570000000E-01
  67 T  14 SI    4.847320000000E-01 -4.212420000000E-01 -3.800840000000E-01
  68 T  14 SI   -4.534000000000E-03 -2.781660000000E-01  3.447740000000E-01
  69 T  14 SI    3.617860000000E-01  1.283230000000E-01  4.505570000000E-01
  70 T  14 SI    1.766970000000E-01  1.018170000000E-01 -1.693440000000E-01
  71 T  14 SI   -9.682300000000E-02  4.841130000000E-01 -1.903600000000E-01
  72 T  14 SI   -4.186800000000E-01  3.674450000000E-01  1.915480000000E-01
  73 T  14 SI   -2.531670000000E-01 -2.663260000000E-01  2.121850000000E-01
  74 T  14 SI    3.583290000000E-01  3.266550000000E-01 -3.564500000000E-01
  75 T  14 SI    1.690390000000E-01  3.757030000000E-01 -1.587840000000E-01
  76 T  14 SI    1.910820000000E-01 -3.111100000000E-01  1.906000000000E-03
  77 T  14 SI    2.064610000000E-01  1.938990000000E-01  2.298660000000E-01
  78 T  14 SI   -4.772360000000E-01 -1.097910000000E-01  2.247390000000E-01
  79 T  14 SI    4.641720000000E-01  1.421470000000E-01 -1.559360000000E-01
  80 T  14 SI    1.626630000000E-01 -2.420300000000E-02 -4.222840000000E-01
  81 T  14 SI   -2.850810000000E-01 -3.204240000000E-01 -2.465920000000E-01
  82 T  14 SI   -1.535080000000E-01  3.528740000000E-01  4.227300000000E-02
  83 T  14 SI    2.947480000000E-01 -2.327990000000E-01 -2.679020000000E-01
  84 T  14 SI   -3.899410000000E-01 -3.249000000000E-03  4.883830000000E-01

 T = ATOM BELONGING TO THE ASYMMETRIC UNIT

 ****   1 SYMMOPS - TRANSLATORS IN FRACTIONAL UNITS
  V INV                   ROTATION MATRICES                       TRANSLATOR
  1  1  1.00  0.00  0.00  0.00  1.00  0.00  0.00  0.00  1.00    0.00  0.00  0.00

 DIRECT LATTICE VECTORS CARTESIAN COMPONENTS (ANGSTROM)
          X                    Y                    Z
   0.104744970000E+02   0.641377961186E-15   0.000000000000E+00
   0.000000000000E+00   0.108914230000E+02   0.000000000000E+00
   0.666267560268E-15   0.666267560268E-15   0.108809750000E+02


 CARTESIAN COORDINATES - PRIMITIVE CELL
 *******************************************************************************
 *      ATOM          X(ANGSTROM)         Y(ANGSTROM)         Z(ANGSTROM)
 *******************************************************************************
   1     8 O    -3.794658875172E+00 -1.957373867291E+00  1.648021592525E+00
   2     8 O    -4.605395417469E+00  4.219119441740E-01 -2.280782931700E+00
   3     8 O    -8.660418864570E-01  2.375593619068E+00 -5.404134162525E+00
   4     8 O    -1.905824254653E+00 -4.265299075260E+00 -1.703231659675E+00
   5     8 O    -4.685745283956E+00 -1.140843884981E+00 -4.463114801600E+00
   6     8 O     3.386740064004E+00  9.690099043100E-01 -1.326608472000E+00
   7     8 O     9.405993561030E-01  2.031413760845E+00  3.549907212775E+00
   8     8 O     5.728607154270E-01  5.185047073341E+00 -1.635388780550E+00
   9     8 O     1.978150656438E+00 -1.767133381750E+00  9.297793137500E-01
  10     8 O    -4.364660052918E+00 -7.774188823170E-01  3.854498345950E+00
  11     8 O     3.036546205803E+00  9.181469589001E-03  5.369489138125E+00
  12     8 O    -3.014654507073E+00  4.207748796128E+00  1.208887203475E+00
  13     8 O    -5.016655593180E-01  4.922672693271E+00  9.812789684250E-01
  14     8 O    -4.569656433705E+00  2.396799219649E+00  2.234147072850E+00
  15     8 O    -4.316896346598E+00 -4.435967673670E+00 -2.913032865050E+00
  16     8 O     5.051535668190E+00  1.640248303800E-02  1.426071464475E+00
  17     8 O     2.952635010336E+00  4.389798931573E+00 -6.359385838750E-01
  18     8 O     3.728700967563E+00 -3.708954296997E+00 -3.848176499475E+00
  19     8 O    -1.707824837862E+00  4.057969947032E+00 -1.178844831500E+00
  20     8 O     2.457955940517E+00  3.615026665045E+00  1.855478261875E+00
  21     8 O     2.424269958165E+00  4.204557609189E+00 -3.201063154275E+00
  22     8 O    -1.895391655641E+00 -3.638791750031E+00  1.080861651625E+00
  23     8 O     4.272442581330E-01 -3.733579804400E-02  5.281211787950E+00
  24     8 O     2.427150444840E-01 -4.169280290092E+00  2.624948170950E+00
  25     8 O     3.489075899694E+00  1.604415522130E+00  3.308382210700E+00
  26     8 O     1.232555010984E+00  2.568339131899E+00 -1.460564155225E+00
  27     8 O     3.256814403216E+00  2.702020457801E+00 -5.162511231675E+00
  28     8 O     2.751755106870E+00 -4.511565040713E+00  9.613450222250E-01
  29     8 O    -9.285955825410E-01  5.285858084629E+00 -3.711391762750E+00
  30     8 O    -1.467319912245E+00 -2.297436767620E+00  3.315661582975E+00
  31     8 O    -2.593914911577E+00  3.319270073480E-01 -5.149040584625E+00
  32     8 O    -2.205792899739E+00 -3.312963939563E+00 -4.110930283775E+00
  33     8 O    -2.272484022138E+00 -5.300441700026E+00  4.956686708575E+00
  34     8 O     1.687535737173E+00  8.771080770360E-01 -3.424493094925E+00
  35     8 O    -5.122647028323E+00  1.245488677165E+00  5.245707166525E+00
  36     8 O     4.622028918705E+00  2.725992479824E+00 -2.777009796575E+00
  37     8 O     4.055201513550E+00 -2.062040442321E+00  2.686099250450E+00
  38     8 O     1.915010388522E+00  9.995821286710E-01  1.269733615675E+00
  39     8 O    -4.341050536680E-01 -2.804214679810E-01  1.074670376850E+00
  40     8 O     4.287923887896E+00 -1.607443337724E+00 -2.351552793100E+00
  41     8 O     1.952247225357E+00 -1.710639570649E+00 -3.789625973000E+00
  42     8 O    -4.917661122033E+00  2.031326629461E+00 -3.012397928750E-01
  43     8 O     1.085618767068E+00 -9.979810894900E-02 -1.036641369225E+00
  44     8 O    -2.927129610141E+00  6.828922221000E-01  1.035727367325E+00
  45     8 O     4.150519436250E-01 -3.621888261535E+00  2.181635487500E-02
  46     8 O    -4.324898862306E+00  4.546243331545E+00  3.618740260625E+00
  47     8 O    -3.550540248090E+00 -3.988134142756E+00  3.065127133600E+00
  48     8 O     4.701603672414E+00  4.756687406751E+00 -4.359952277625E+00
  49     8 O    -1.300963950891E+00  8.632541869800E-01  3.218733857675E+00
  50     8 O    -4.705563032280E+00 -4.203588272542E+00  5.326672501500E+00
  51     8 O    -1.451555794260E-01 -3.722143810250E+00  5.224260764800E+00
  52     8 O     4.821452867088E+00  4.715626742041E+00  1.307120645775E+00
  53     8 O     2.500011045972E+00 -3.187799706447E+00 -1.495742347400E+00
  54     8 O    -3.536986248972E+00 -2.039615002364E+00 -2.175999142450E+00
  55     8 O     1.348717182714E+00 -2.135960530222E+00  3.625932585100E+00
  56     8 O    -1.015910989533E+00  2.382879981055E+00  9.088225559000E-01
  57    14 SI   -2.772389865960E-01  1.281996727061E+00  4.466944904800E+00
  58    14 SI   -4.710601265337E+00 -1.093084995126E+00 -2.842437099250E+00
  59    14 SI   -3.726386103726E+00 -4.995067981952E+00  4.298594459600E+00
  60    14 SI    1.096522718445E+00 -2.228929716950E-01  5.692708500500E-01
  61    14 SI   -4.607102760480E-01 -4.371523123779E+00  1.177713210100E+00
  62    14 SI   -4.445963098632E+00  1.275440090415E+00  1.069403984950E+00
  63    14 SI   -1.353734466777E+00 -4.499214167031E+00 -4.847409076650E+00
  64    14 SI   -1.429423182099E+00  9.477280637680E-01  1.612179660875E+00
  65    14 SI    3.240610356357E+00  4.745022692718E+00  9.264279734500E-01
  66    14 SI    2.515502827035E+00 -1.511522575363E+00  2.674075773075E+00
  67    14 SI    5.077323879804E+00 -4.587924807366E+00 -4.135684501900E+00
  68    14 SI   -4.749136939800E-02 -3.029623570218E+00  3.751477274650E+00
  69    14 SI    3.789526371642E+00  1.397620073629E+00  4.902499453075E+00
  70    14 SI    1.850812196409E+00  1.108932015591E+00 -1.842627830400E+00
  71    14 SI   -1.014172223031E+00  5.272679462799E+00 -2.071302401000E+00
  72    14 SI   -4.385462403960E+00  4.001998924235E+00  2.084228999300E+00
  73    14 SI   -2.651796981999E+00 -2.900669121898E+00  2.308779680375E+00
  74    14 SI    3.753316035513E+00  3.557737780065E+00 -3.878523538750E+00
  75    14 SI    1.770598498383E+00  4.091940295369E+00 -1.727724734400E+00
  76    14 SI    2.001487835754E+00 -3.388430609530E+00  2.073913835000E-02
  77    14 SI    2.162575125117E+00  2.111836028277E+00  2.501166199350E+00
  78    14 SI   -4.998807050292E+00 -1.195780222593E+00  2.445379440525E+00
  79    14 SI    4.861968221484E+00  1.548183105181E+00 -1.696735717600E+00
  80    14 SI    1.703813105511E+00 -2.636051108690E-01 -4.594861646900E+00
  81    14 SI   -2.986080079257E+00 -3.489873323352E+00 -2.683161387200E+00
  82    14 SI   -1.607919085476E+00  3.843299999702E+00  4.599714561750E-01
  83    14 SI    3.087337041756E+00 -2.535512382977E+00 -2.915034964450E+00
  84    14 SI   -4.084435834677E+00 -3.538623332700E-02  5.314083213425E+00

 *******************************************************************************
 LOCAL ATOMIC FUNCTIONS BASIS SET
 *******************************************************************************
   ATOM  X(AU)  Y(AU)  Z(AU)    NO. TYPE  EXPONENT  S COEF   P COEF   D/F/G COEF
 *******************************************************************************
   1 O  -7.171 -3.699  3.114
                                  1 S  
                                         8.020E+03 1.080E-03 0.000E+00 0.000E+00
                                         1.338E+03 8.040E-03 0.000E+00 0.000E+00
                                         2.554E+02 5.324E-02 0.000E+00 0.000E+00
                                         6.922E+01 1.681E-01 0.000E+00 0.000E+00
                                         2.390E+01 3.581E-01 0.000E+00 0.000E+00
                                         9.264E+00 3.855E-01 0.000E+00 0.000E+00
                                         3.851E+00 1.468E-01 0.000E+00 0.000E+00
                                         1.212E+00 7.280E-02 0.000E+00 0.000E+00
                             2-   5 SP 
                                         4.943E+01-8.830E-03 9.580E-03 0.000E+00
                                         1.047E+01-9.150E-02 6.960E-02 0.000E+00
                                         3.235E+00-4.020E-02 2.065E-01 0.000E+00
                                         1.217E+00 3.790E-01 3.470E-01 0.000E+00
                             6-   9 SP 
                                         4.763E-01 1.000E+00 1.000E+00 0.000E+00
                            10-  13 SP 
                                         1.900E-01 1.000E+00 1.000E+00 0.000E+00
   2 O  -8.703  0.797 -4.310
   3 O  -1.637  4.489-10.212
   4 O  -3.601 -8.060 -3.219
   5 O  -8.855 -2.156 -8.434
   6 O   6.400  1.831 -2.507
   7 O   1.777  3.839  6.708
   8 O   1.083  9.798 -3.090
   9 O   3.738 -3.339  1.757
  10 O  -8.248 -1.469  7.284
  11 O   5.738  0.017 10.147
  12 O  -5.697  7.951  2.284
  13 O  -0.948  9.303  1.854
  14 O  -8.635  4.529  4.222
  15 O  -8.158 -8.383 -5.505
  16 O   9.546  0.031  2.695
  17 O   5.580  8.296 -1.202
  18 O   7.046 -7.009 -7.272
  19 O  -3.227  7.668 -2.228
  20 O   4.645  6.831  3.506
  21 O   4.581  7.945 -6.049
  22 O  -3.582 -6.876  2.043
  23 O   0.807 -0.071  9.980
  24 O   0.459 -7.879  4.960
  25 O   6.593  3.032  6.252
  26 O   2.329  4.853 -2.760
  27 O   6.154  5.106 -9.756
  28 O   5.200 -8.526  1.817
  29 O  -1.755  9.989 -7.014
  30 O  -2.773 -4.342  6.266
  31 O  -4.902  0.627 -9.730
  32 O  -4.168 -6.261 -7.769
  33 O  -4.294-10.016  9.367
  34 O   3.189  1.657 -6.471
  35 O  -9.680  2.354  9.913
  36 O   8.734  5.151 -5.248
  37 O   7.663 -3.897  5.076
  38 O   3.619  1.889  2.399
  39 O  -0.820 -0.530  2.031
  40 O   8.103 -3.038 -4.444
  41 O   3.689 -3.233 -7.161
  42 O  -9.293  3.839 -0.569
  43 O   2.052 -0.189 -1.959
  44 O  -5.531  1.290  1.957
  45 O   0.784 -6.844  0.041
  46 O  -8.173  8.591  6.838
  47 O  -6.710 -7.536  5.792
  48 O   8.885  8.989 -8.239
  49 O  -2.458  1.631  6.083
  50 O  -8.892 -7.944 10.066
  51 O  -0.274 -7.034  9.872
  52 O   9.111  8.911  2.470
  53 O   4.724 -6.024 -2.827
  54 O  -6.684 -3.854 -4.112
  55 O   2.549 -4.036  6.852
  56 O  -1.920  4.503  1.717
  57 SI -0.524  2.423  8.441
                                729 S  
                                         8.765E+04 2.370E-04 0.000E+00 0.000E+00
                                         1.285E+04 1.920E-03 0.000E+00 0.000E+00
                                         2.786E+03 1.090E-02 0.000E+00 0.000E+00
                                         7.280E+02 4.960E-02 0.000E+00 0.000E+00
                                         2.195E+02 1.668E-01 0.000E+00 0.000E+00
                                         7.590E+01 3.630E-01 0.000E+00 0.000E+00
                                         2.946E+01 4.051E-01 0.000E+00 0.000E+00
                                         1.199E+01 1.504E-01 0.000E+00 0.000E+00
                           730- 733 SP 
                                         1.660E+02-8.840E-03 9.090E-03 0.000E+00
                                         3.937E+01-8.590E-02 6.010E-02 0.000E+00
                                         1.271E+01-7.120E-02 1.952E-01 0.000E+00
                                         4.718E+00 4.147E-01 3.384E-01 0.000E+00
                                         1.848E+00 6.168E-01 3.006E-01 0.000E+00
                                         7.365E-01 1.154E-01 6.480E-02 0.000E+00
                           734- 737 SP 
                                         4.175E+00-1.990E-02-8.700E-03 0.000E+00
                                         1.447E+00-1.864E-01-4.380E-03 0.000E+00
                                         5.023E-01 9.670E-02 2.207E-01 0.000E+00
                           738- 741 SP 
                                         3.220E-01 1.000E+00 1.000E+00 0.000E+00
                           742- 745 SP 
                                         1.300E-01 1.000E+00 1.000E+00 0.000E+00
                           746- 750 D  
                                         6.000E-01 0.000E+00 0.000E+00 1.000E+00
  58 SI -8.902 -2.066 -5.371
  59 SI -7.042 -9.439  8.123
  60 SI  2.072 -0.421  1.076
  61 SI -0.871 -8.261  2.226
  62 SI -8.402  2.410  2.021
  63 SI -2.558 -8.502 -9.160
  64 SI -2.701  1.791  3.047
  65 SI  6.124  8.967  1.751
  66 SI  4.754 -2.856  5.053
  67 SI  9.595 -8.670 -7.815
  68 SI -0.090 -5.725  7.089
  69 SI  7.161  2.641  9.264
  70 SI  3.498  2.096 -3.482
  71 SI -1.917  9.964 -3.914
  72 SI -8.287  7.563  3.939
  73 SI -5.011 -5.481  4.363
  74 SI  7.093  6.723 -7.329
  75 SI  3.346  7.733 -3.265
  76 SI  3.782 -6.403  0.039
  77 SI  4.087  3.991  4.727
  78 SI -9.446 -2.260  4.621
  79 SI  9.188  2.926 -3.206
  80 SI  3.220 -0.498 -8.683
  81 SI -5.643 -6.595 -5.070
  82 SI -3.039  7.263  0.869
  83 SI  5.834 -4.791 -5.509
  84 SI -7.718 -0.067 10.042
 INFORMATION **** TOLINTEG **** COULOMB AND EXCHANGE SERIES TOLERANCES MODIFIED
 INFORMATION **** READM2 **** FULL DIRECT SCF (MONO AND BIEL INT) SELECTED
 INFORMATION **** SMEAR **** FERMI SMEARING ACTIVE
 FERMI SMEARING - TEMPERATURE SMEARING OF FERMI SURFACE  0.1000E-12
 INFORMATION **** MAXCYCLE **** MAX NUMBER OF SCF CYCLES SET TO         250

 MODIFIED BROYDEN MIXING OF THE FOCK MATRIX
 WO PARAMETER(D.D. Johnson, PRB38, 12807,(1988)             1.0000E-04
 % OF FOCK/KS MATRICES MIXING WHEN BROYDEN METHOD IS ON             90
 NUMBER OF SCF ITERATIONS AFTER WHICH BROYDEN METHOD IS ACTIVE      40
 INFORMATION **** TOLDEE **** SCF TOL ON TOTAL ENERGY SET TO           7
 *******************************************************************************
 N. OF ATOMS PER CELL       84  COULOMB OVERLAP TOL         (T1) 10** -8
 NUMBER OF SHELLS          392  COULOMB PENETRATION TOL     (T2) 10** -8
 NUMBER OF AO             1344  EXCHANGE OVERLAP TOL        (T3) 10** -8
 N. OF ELECTRONS PER CELL  840  EXCHANGE PSEUDO OVP (F(G))  (T4) 10** -8
 CORE ELECTRONS PER CELL   392  EXCHANGE PSEUDO OVP (P(G))  (T5) 10**-16
 N. OF SYMMETRY OPERATORS    1  POLE ORDER IN MONO ZONE                4
 *******************************************************************************
 TYPE OF CALCULATION :  UNRESTRICTED OPEN SHELL
 KOHN-SHAM HAMILTONIAN

 (EXCHANGE)[CORRELATION] FUNCTIONAL:(BECKE)[LEE-YANG-PARR]

 NON-LOCAL WEIGHTING FACTOR (EXCHANGE) =           0.9000
 NON-LOCAL WEIGHTING FACTOR [CORRELATION] =        0.8100

 HYBRID EXCHANGE - PERCENTAGE OF FOCK EXCHANGE     5.0000

 SPIN POLARIZED DFT SELECTED

 CAPPA:IS1  3;IS2  3;IS3  3; K PTS MONK NET   14; SYMMOPS: K SPACE  2;G SPACE  1

 *******************************************************************************
 MAX NUMBER OF SCF CYCLES     250  CONVERGENCE ON DELTAP        10**-17
 WEIGHT OF F(I) IN F(I+1)      95% CONVERGENCE ON ENERGY        10**- 7
 SHRINK. FACT.(MONKH.)    3  3  3  NUMBER OF K POINTS IN THE IBZ     14
 SHRINKING FACTOR(GILAT NET)    3  NUMBER OF K POINTS(GILAT NET)     14
 *******************************************************************************
 *** K POINTS COORDINATES (OBLIQUE COORDINATES IN UNITS OF IS =  3)
   1-R(  0  0  0)   2-C(  1  0  0)   3-C(  0  1  0)   4-C(  1  1  0)
   5-C(  2  1  0)   6-C(  0  0  1)   7-C(  1  0  1)   8-C(  2  0  1)
   9-C(  0  1  1)  10-C(  1  1  1)  11-C(  2  1  1)  12-C(  0  2  1)
  13-C(  1  2  1)  14-C(  2  2  1)

 DIRECT LATTICE VECTORS COMPON. (A.U.)     RECIP. LATTICE VECTORS COMPON. (A.U.) 
        X            Y            Z              X            Y            Z
   19.7939307    0.0000000    0.0000000      0.3174299    0.0000000    0.0000000
    0.0000000   20.5818067    0.0000000      0.0000000    0.3052786    0.0000000
    0.0000000    0.0000000   20.5620628      0.0000000    0.0000000    0.3055717

 DISK SPACE FOR EIGENVECTORS (FTN 10)   48771072 REALS

 SYMMETRY ADAPTION OF THE BLOCH FUNCTIONS DISABLED
 TTTTTTTTTTTTTTTTTTTTTTTTTTTTTT gordsh1     TELAPSE        5.46 TCPU        0.91

 DIMENSIONS  P(G)= 2853500 F(G)=  502436 P(G),F(G) (IRR) 1430726
 MAX G-VECTOR INDEX FOR 1- AND 2-ELECTRON INTEGRALS  37

 TTTTTTTTTTTTTTTTTTTTTTTTTTTTTT INPUT       TELAPSE        6.95 TCPU        2.40

 NEIGHBORS OF THE NON-EQUIVALENT ATOMS

 N = NUMBER OF NEIGHBORS AT DISTANCE R
    ATOM  N     R/ANG      R/AU   NEIGHBORS (ATOM LABELS AND CELL INDICES)
   1 O    1     1.6225     3.0661  73 SI   0 0 0
   1 O    1     1.6327     3.0854  78 SI   0 0 0
   1 O    1     2.4883     4.7023  47 O    0 0 0
   1 O    1     2.5663     4.8495  10 O    0 0 0
   1 O    1     2.5684     4.8535  16 O   -1 0 0
   1 O    1     2.5992     4.9119  22 O    0 0 0

   2 O    1     1.6192     3.0598  58 SI   0 0 0
   2 O    1     1.6199     3.0611  79 SI  -1 0 0
   2 O    1     2.5703     4.8571  42 O    0 0 0
   2 O    1     2.5736     4.8634  40 O   -1 0 0
   2 O    1     2.6665     5.0390  36 O   -1 0 0
   2 O    1     2.6854     5.0746   5 O    0 0 0

   3 O    1     1.6008     3.0251  57 SI   0 0-1
   3 O    1     2.6637     5.0337   7 O    0 0-1
   3 O    1     2.6883     5.0802  31 O    0 0 0
   3 O    1     2.7446     5.1866  23 O    0 0-1
   3 O    1     2.7523     5.2012  49 O    0 0-1
   3 O    1     3.3673     6.3633  29 O    0 0 0

   4 O    1     1.6518     3.1215  81 SI   0 0 0
   4 O    1     1.6620     3.1408  71 SI   0-1 0
   4 O    1     2.6046     4.9220  29 O    0-1 0
   4 O    1     2.6065     4.9256  32 O    0 0 0
   4 O    1     2.6286     4.9674  19 O    0-1 0
   4 O    1     2.7030     5.1079  15 O    0 0 0

   5 O    1     1.6216     3.0643  58 SI   0 0 0
   5 O    1     1.6739     3.1632  84 SI   0 0-1
   5 O    1     2.6088     4.9300  10 O    0 0-1
   5 O    1     2.6323     4.9743  40 O   -1 0 0
   5 O    1     2.6486     5.0052  31 O    0 0 0
   5 O    1     2.6854     5.0746   2 O    0 0 0

   6 O    1     1.6263     3.0733  70 SI   0 0 0
   6 O    1     1.6275     3.0755  79 SI   0 0 0
   6 O    1     2.5537     4.8259  43 O    0 0 0
   6 O    1     2.5916     4.8975  36 O    0 0 0
   6 O    1     2.6247     4.9600  42 O    1 0 0
   6 O    1     2.6863     5.0764  26 O    0 0 0

   7 O    1     1.6123     3.0468  77 SI   0 0 0
   7 O    1     1.6987     3.2102  57 SI   0 0 0
   7 O    1     2.5493     4.8175  49 O    0 0 0
   7 O    1     2.5953     4.9043  25 O    0 0 0
   7 O    1     2.6637     5.0337   3 O    0 0 1
   7 O    1     2.6858     5.0754  38 O    0 0 0

   8 O    1     1.6242     3.0693  75 SI   0 0 0
   8 O    1     1.6481     3.1145  71 SI   0 0 0
   8 O    1     2.5640     4.8453  29 O    0 0 0
   8 O    1     2.5846     4.8842  19 O    0 0 0
   8 O    1     2.6154     4.9424  21 O    0 0 0
   8 O    1     2.6676     5.0411  45 O    0 1 0

   9 O    1     1.8144     3.4286  60 SI   0 0 0
   9 O    1     1.8430     3.4828  66 SI   0 0 0
   9 O    1     1.8589     3.5128  76 SI   0 0 0
   9 O    1     2.5899     4.8943  45 O    0 0 0
   9 O    1     2.7283     5.1557  43 O    0 0 0
   9 O    1     2.7360     5.1703  37 O    0 0 0

  10 O    1     1.6009     3.0252  78 SI   0 0 0
  10 O    1     1.6612     3.1392  84 SI   0 0 0
  10 O    1     2.5663     4.8495   1 O    0 0 0
  10 O    1     2.5695     4.8556  35 O    0 0 0
  10 O    1     2.6088     4.9300   5 O    0 0 1
  10 O    1     2.6902     5.0837  37 O   -1 0 0

  11 O    1     1.6404     3.0998  80 SI   0 0 1
  11 O    1     1.6471     3.1125  69 SI   0 0 0
  11 O    1     2.6112     4.9345  23 O    0 0 0
  11 O    1     2.6276     4.9655  35 O    1 0 0
  11 O    1     2.6322     4.9742  34 O    0 0 1
  11 O    1     2.6453     4.9989  25 O    0 0 0

  12 O    1     1.6348     3.0893  82 SI   0 0 0
  12 O    1     1.6394     3.0980  72 SI   0 0 0
  12 O    1     2.5978     4.9092  14 O    0 0 0
  12 O    1     2.6226     4.9560  13 O    0 0 0
  12 O    1     2.6886     5.0808  52 O   -1 0 0
  12 O    1     2.7231     5.1459  56 O    0 0 0

  13 O    1     1.6098     3.0420  61 SI   0 1 0
  13 O    1     1.6311     3.0824  82 SI   0 0 0
  13 O    1     2.5483     4.8156  24 O    0 1 0
  13 O    1     2.5923     4.8988  56 O    0 0 0
  13 O    1     2.6208     4.9526  19 O    0 0 0
  13 O    1     2.6226     4.9560  12 O    0 0 0

  14 O    1     1.6215     3.0643  62 SI   0 0 0
  14 O    1     1.6227     3.0664  72 SI   0 0 0
  14 O    1     2.5685     4.8537  46 O    0 0 0
  14 O    1     2.5851     4.8852  42 O    0 0 0
  14 O    1     2.5978     4.9092  12 O    0 0 0
  14 O    1     2.6547     5.0166  16 O   -1 0 0

  15 O    1     1.6386     3.0965  67 SI  -1 0 0
  15 O    1     1.6489     3.1160  81 SI   0 0 0
  15 O    1     2.6256     4.9617  54 O    0 0 0
  15 O    1     2.6645     5.0351  48 O   -1-1 0
  15 O    1     2.6745     5.0540  32 O    0 0 0
  15 O    1     2.6798     5.0641  50 O    0 0-1

  16 O    1     1.6331     3.0861  62 SI   1 0 0
  16 O    1     1.6396     3.0984  78 SI   1 0 0
  16 O    1     2.5684     4.8535   1 O    1 0 0
  16 O    1     2.6126     4.9371  44 O    1 0 0
  16 O    1     2.6268     4.9640  37 O    0 0 0
  16 O    1     2.6547     5.0166  14 O    1 0 0

  17 O    1     1.6279     3.0763  65 SI   0 0 0
  17 O    1     1.6364     3.0924  75 SI   0 0 0
  17 O    1     2.5597     4.8371  28 O    0 1 0
  17 O    1     2.6255     4.9615  21 O    0 0 0
  17 O    1     2.6375     4.9841  26 O    0 0 0
  17 O    1     2.6556     5.0183  20 O    0 0 0

  18 O    1     1.6307     3.0815  83 SI   0 0 0
  18 O    1     1.6352     3.0902  67 SI   0 0 0
  18 O    1     2.6399     4.9886  40 O    0 0 0
  18 O    1     2.6632     5.0328  48 O    0-1 0
  18 O    1     2.6744     5.0539  41 O    0 0 0
  18 O    1     2.7023     5.1067  15 O    1 0 0

  19 O    1     1.6558     3.1291  82 SI   0 0 0
  19 O    1     1.6593     3.1356  71 SI   0 0 0
  19 O    1     2.5846     4.8842   8 O    0 0 0
  19 O    1     2.6208     4.9526  13 O    0 0 0
  19 O    1     2.6286     4.9674   4 O    0 1 0
  19 O    1     2.7261     5.1515  12 O    0 0 0

  20 O    1     1.6591     3.1352  65 SI   0 0 0
  20 O    1     1.6625     3.1416  77 SI   0 0 0
  20 O    1     2.6556     5.0183  17 O    0 0 0
  20 O    1     2.6642     5.0347  52 O    0 0 0
  20 O    1     2.6864     5.0765  25 O    0 0 0
  20 O    1     2.7347     5.1678  38 O    0 0 0

  21 O    1     1.6158     3.0534  75 SI   0 0 0
  21 O    1     1.6259     3.0726  74 SI   0 0 0
  21 O    1     2.6073     4.9271  27 O    0 0 0
  21 O    1     2.6142     4.9402  48 O    0 0 0
  21 O    1     2.6154     4.9424   8 O    0 0 0
  21 O    1     2.6255     4.9615  17 O    0 0 0

  22 O    1     1.6139     3.0498  61 SI   0 0 0
  22 O    1     1.6201     3.0616  73 SI   0 0 0
  22 O    1     2.5417     4.8030  45 O    0 0 0
  22 O    1     2.5992     4.9119   1 O    0 0 0
  22 O    1     2.6075     4.9274  47 O    0 0 0
  22 O    1     2.6414     4.9915  30 O    0 0 0

  23 O    1     1.6403     3.0998  80 SI   0 0 1
  23 O    1     1.7029     3.2181  57 SI   0 0 0
  23 O    1     2.6112     4.9345  11 O    0 0 0
  23 O    1     2.6751     5.0553  34 O    0 0 1
  23 O    1     2.7446     5.1866   3 O    0 0 1
  23 O    1     2.7460     5.1892   7 O    0 0 0

  24 O    1     1.6218     3.0647  61 SI   0 0 0
  24 O    1     1.6285     3.0775  68 SI   0 0 0
  24 O    1     2.5218     4.7656  55 O    0 0 0
  24 O    1     2.5483     4.8156  13 O    0-1 0
  24 O    1     2.6278     4.9657  30 O    0 0 0
  24 O    1     2.6656     5.0373  45 O    0 0 0

  25 O    1     1.6336     3.0871  77 SI   0 0 0
  25 O    1     1.6353     3.0903  69 SI   0 0 0
  25 O    1     2.5953     4.9043   7 O    0 0 0
  25 O    1     2.6453     4.9989  11 O    0 0 0
  25 O    1     2.6457     4.9996  38 O    0 0 0
  25 O    1     2.6584     5.0237  27 O    0 0 1

  26 O    1     1.6304     3.0809  70 SI   0 0 0
  26 O    1     1.6378     3.0949  75 SI   0 0 0
  26 O    1     2.6314     4.9726  34 O    0 0 0
  26 O    1     2.6375     4.9841  17 O    0 0 0
  26 O    1     2.6696     5.0448  21 O    0 0 0
  26 O    1     2.6863     5.0764   6 O    0 0 0

  27 O    1     1.6209     3.0631  74 SI   0 0 0
  27 O    1     1.6282     3.0769  69 SI   0 0-1
  27 O    1     2.5950     4.9039  35 O    1 0-1
  27 O    1     2.6073     4.9271  21 O    0 0 0
  27 O    1     2.6369     4.9830  48 O    0 0 0
  27 O    1     2.6584     5.0237  25 O    0 0-1

  28 O    1     1.6459     3.1103  76 SI   0 0 0
  28 O    1     1.7067     3.2252  65 SI   0-1 0
  28 O    1     2.5597     4.8371  17 O    0-1 0
  28 O    1     2.6710     5.0475  45 O    0 0 0
  28 O    1     2.6782     5.0611  52 O    0-1 0
  28 O    1     2.8023     5.2956  53 O    0 0 0

  29 O    1     1.6417     3.1024  63 SI   0 1 0
  29 O    1     1.6424     3.1036  71 SI   0 0 0
  29 O    1     2.5640     4.8453   8 O    0 0 0
  29 O    1     2.6046     4.9220   4 O    0 1 0
  29 O    1     2.6069     4.9264  33 O    0 1-1
  29 O    1     2.6546     5.0165  32 O    0 1 0

  30 O    1     1.6559     3.1292  68 SI   0 0 0
  30 O    1     1.6675     3.1512  73 SI   0 0 0
  30 O    1     2.6278     4.9657  24 O    0 0 0
  30 O    1     2.6414     4.9915  22 O    0 0 0
  30 O    1     2.6946     5.0921  47 O    0 0 0
  30 O    1     2.7241     5.1478  51 O    0 0 0

  31 O    1     1.5910     3.0065  84 SI   0 0-1
  31 O    1     2.6486     5.0052   5 O    0 0 0
  31 O    1     2.6883     5.0802   3 O    0 0 0
  31 O    1     2.7323     5.1633  35 O    0 0-1
  31 O    1     2.8053     5.3013  57 SI   0 0-1
  31 O    1     2.8091     5.3084  10 O    0 0-1

  32 O    1     1.6357     3.0911  63 SI   0 0 0
  32 O    1     1.6367     3.0928  81 SI   0 0 0
  32 O    1     2.6065     4.9256   4 O    0 0 0
  32 O    1     2.6083     4.9289  51 O    0 0-1
  32 O    1     2.6546     5.0165  29 O    0-1 0
  32 O    1     2.6716     5.0486  54 O    0 0 0

  33 O    1     1.6249     3.0705  59 SI   0 0 0
  33 O    1     1.6266     3.0738  63 SI   0 0 1
  33 O    1     2.6069     4.9264  29 O    0-1 1
  33 O    1     2.6332     4.9760  47 O    0 0 0
  33 O    1     2.6624     5.0311  51 O    0 0 0
  33 O    1     2.6635     5.0332  46 O    0-1 0

  34 O    1     1.6071     3.0369  70 SI   0 0 0
  34 O    1     1.6344     3.0886  80 SI   0 0 0
  34 O    1     2.6268     4.9638  41 O    0 0 0
  34 O    1     2.6314     4.9726  26 O    0 0 0
  34 O    1     2.6322     4.9742  11 O    0 0-1
  34 O    1     2.6492     5.0063  43 O    0 0 0

  35 O    1     1.6068     3.0364  69 SI  -1 0 0
  35 O    1     1.6502     3.1184  84 SI   0 0 0
  35 O    1     2.5695     4.8556  10 O    0 0 0
  35 O    1     2.5950     4.9039  27 O   -1 0 1
  35 O    1     2.6276     4.9655  11 O   -1 0 0
  35 O    1     2.6943     5.0915   5 O    0 0 1

  36 O    1     1.6161     3.0540  79 SI   0 0 0
  36 O    1     1.6309     3.0819  74 SI   0 0 0
  36 O    1     2.5760     4.8679  48 O    0 0 0
  36 O    1     2.5916     4.8975   6 O    0 0 0
  36 O    1     2.6665     5.0390   2 O    1 0 0
  36 O    1     2.6826     5.0693  21 O    0 0 0

  37 O    1     1.6352     3.0901  66 SI   0 0 0
  37 O    1     1.6811     3.1768  78 SI   1 0 0
  37 O    1     2.6268     4.9640  16 O    0 0 0
  37 O    1     2.6902     5.0837  10 O    1 0 0
  37 O    1     2.7360     5.1703   9 O    0 0 0
  37 O    1     2.8244     5.3374   1 O    1 0 0

  38 O    1     1.6294     3.0792  60 SI   0 0 0
  38 O    1     1.6777     3.1705  77 SI   0 0 0
  38 O    1     2.6457     4.9996  25 O    0 0 0
  38 O    1     2.6823     5.0688  39 O    0 0 0
  38 O    1     2.6858     5.0754   7 O    0 0 0
  38 O    1     2.6862     5.0763  43 O    0 0 0

  39 O    1     1.6129     3.0480  60 SI   0 0 0
  39 O    1     1.6697     3.1553  64 SI   0 0 0
  39 O    1     2.5800     4.8755  49 O    0 0 0
  39 O    1     2.6076     4.9277  43 O    0 0 0
  39 O    1     2.6729     5.0511  44 O    0 0 0
  39 O    1     2.6823     5.0688  38 O    0 0 0

  40 O    1     1.6187     3.0589  83 SI   0 0 0
  40 O    1     1.6383     3.0959  58 SI   1 0 0
  40 O    1     2.5351     4.7906  53 O    0 0 0
  40 O    1     2.5736     4.8634   2 O    1 0 0
  40 O    1     2.6323     4.9743   5 O    1 0 0
  40 O    1     2.6399     4.9886  18 O    0 0 0

  41 O    1     1.6534     3.1245  83 SI   0 0 0
  41 O    1     1.6745     3.1644  80 SI   0 0 0
  41 O    1     2.6268     4.9638  34 O    0 0 0
  41 O    1     2.6643     5.0347  11 O    0 0-1
  41 O    1     2.6744     5.0539  18 O    0 0 0
  41 O    1     2.7448     5.1870  40 O    0 0 0

  42 O    1     1.6321     3.0842  79 SI  -1 0 0
  42 O    1     1.6348     3.0893  62 SI   0 0 0
  42 O    1     2.5703     4.8571   2 O    0 0 0
  42 O    1     2.5851     4.8852  14 O    0 0 0
  42 O    1     2.6247     4.9600   6 O   -1 0 0
  42 O    1     2.7016     5.1054  16 O   -1 0 0

  43 O    1     1.6107     3.0437  60 SI   0 0 0
  43 O    1     1.6420     3.1029  70 SI   0 0 0
  43 O    1     2.5537     4.8259   6 O    0 0 0
  43 O    1     2.6076     4.9277  39 O    0 0 0
  43 O    1     2.6492     5.0063  34 O    0 0 0
  43 O    1     2.6862     5.0763  38 O    0 0 0

  44 O    1     1.6265     3.0737  64 SI   0 0 0
  44 O    1     1.6307     3.0815  62 SI   0 0 0
  44 O    1     2.5610     4.8396  56 O    0 0 0
  44 O    1     2.6126     4.9371  16 O   -1 0 0
  44 O    1     2.6592     5.0252  14 O    0 0 0
  44 O    1     2.6729     5.0511  39 O    0 0 0

  45 O    1     1.6035     3.0302  76 SI   0 0 0
  45 O    1     1.6325     3.0850  61 SI   0 0 0
  45 O    1     2.5417     4.8030  22 O    0 0 0
  45 O    1     2.5899     4.8943   9 O    0 0 0
  45 O    1     2.6150     4.9417  53 O    0 0 0
  45 O    1     2.6656     5.0373  24 O    0 0 0

  46 O    1     1.6258     3.0723  59 SI   0 1 0
  46 O    1     1.6293     3.0789  72 SI   0 0 0
  46 O    1     2.5420     4.8037  47 O    0 1 0
  46 O    1     2.5685     4.8537  14 O    0 0 0
  46 O    1     2.6635     5.0332  33 O    0 1 0
  46 O    1     2.6714     5.0482  52 O   -1 0 0

  47 O    1     1.6007     3.0250  73 SI   0 0 0
  47 O    1     1.6020     3.0273  59 SI   0 0 0
  47 O    1     2.4883     4.7023   1 O    0 0 0
  47 O    1     2.5420     4.8037  46 O    0-1 0
  47 O    1     2.5485     4.8161  50 O    0 0 0
  47 O    1     2.6075     4.9274  22 O    0 0 0

  48 O    1     1.6027     3.0286  74 SI   0 0 0
  48 O    1     1.6075     3.0378  67 SI   0 1 0
  48 O    1     2.5090     4.7413  50 O    1 1-1
  48 O    1     2.5760     4.8679  36 O    0 0 0
  48 O    1     2.6142     4.9402  21 O    0 0 0
  48 O    1     2.6369     4.9830  27 O    0 0 0

  49 O    1     1.6139     3.0498  64 SI   0 0 0
  49 O    1     1.6677     3.1516  57 SI   0 0 0
  49 O    1     2.5493     4.8175   7 O    0 0 0
  49 O    1     2.5800     4.8755  39 O    0 0 0
  49 O    1     2.7281     5.1553  44 O    0 0 0
  49 O    1     2.7523     5.2012   3 O    0 0 1

  50 O    1     1.6244     3.0696  67 SI  -1 0 1
  50 O    1     1.6255     3.0717  59 SI   0 0 0
  50 O    1     2.5090     4.7413  48 O   -1-1 1
  50 O    1     2.5485     4.8161  47 O    0 0 0
  50 O    1     2.6798     5.0641  15 O    0 0 1
  50 O    1     2.6944     5.0917  33 O    0 0 0

  51 O    1     1.6304     3.0810  68 SI   0 0 0
  51 O    1     1.6491     3.1163  63 SI   0 0 1
  51 O    1     2.6083     4.9289  32 O    0 0 1
  51 O    1     2.6624     5.0311  33 O    0 0 0
  51 O    1     2.6659     5.0377  24 O    0 0 0
  51 O    1     2.7023     5.1066  55 O    0 0 0

  52 O    1     1.6263     3.0733  65 SI   0 0 0
  52 O    1     1.6492     3.1166  72 SI   1 0 0
  52 O    1     2.6642     5.0347  20 O    0 0 0
  52 O    1     2.6714     5.0482  46 O    1 0 0
  52 O    1     2.6782     5.0611  28 O    0 1 0
  52 O    1     2.6886     5.0808  12 O    1 0 0

  53 O    1     1.6089     3.0403  76 SI   0 0 0
  53 O    1     1.6688     3.1535  83 SI   0 0 0
  53 O    1     2.5351     4.7906  40 O    0 0 0
  53 O    1     2.6150     4.9417  45 O    0 0 0
  53 O    1     2.7047     5.1111  18 O    0 0 0
  53 O    1     2.7828     5.2587  41 O    0 0 0

  54 O    1     1.6322     3.0843  81 SI   0 0 0
  54 O    1     1.6485     3.1151  58 SI   0 0 0
  54 O    1     2.6256     4.9617  15 O    0 0 0
  54 O    1     2.6716     5.0486  32 O    0 0 0
  54 O    1     2.6854     5.0747   2 O    0 0 0
  54 O    1     2.6903     5.0840  40 O   -1 0 0

  55 O    1     1.6301     3.0805  66 SI   0 0 0
  55 O    1     1.6625     3.1416  68 SI   0 0 0
  55 O    1     2.5218     4.7656  24 O    0 0 0
  55 O    1     2.7023     5.1066  51 O    0 0 0
  55 O    1     2.7931     5.2782   9 O    0 0 0
  55 O    1     2.8272     5.3427  23 O    0 0 0

  56 O    1     1.6385     3.0964  82 SI   0 0 0
  56 O    1     1.6509     3.1197  64 SI   0 0 0
  56 O    1     2.5610     4.8396  44 O    0 0 0
  56 O    1     2.5923     4.8988  13 O    0 0 0
  56 O    1     2.7231     5.1459  12 O    0 0 0
  56 O    1     2.7311     5.1611  39 O    0 0 0

  57 SI   1     1.6008     3.0251   3 O    0 0 1
  57 SI   1     1.6677     3.1516  49 O    0 0 0
  57 SI   1     1.6987     3.2102   7 O    0 0 0
  57 SI   1     1.7029     3.2181  23 O    0 0 0
  57 SI   1     2.8053     5.3013  31 O    0 0 1
  57 SI   1     3.0966     5.8517  64 SI   0 0 0

  58 SI   1     1.6192     3.0598   2 O    0 0 0
  58 SI   1     1.6216     3.0643   5 O    0 0 0
  58 SI   1     1.6383     3.0959  40 O   -1 0 0
  58 SI   1     1.6485     3.1151  54 O    0 0 0
  58 SI   1     2.9570     5.5879  81 SI   0 0 0
  58 SI   1     2.9889     5.6482  84 SI   0 0-1

  59 SI   1     1.6020     3.0273  47 O    0 0 0
  59 SI   1     1.6249     3.0705  33 O    0 0 0
  59 SI   1     1.6255     3.0717  50 O    0 0 0
  59 SI   1     1.6258     3.0723  46 O    0-1 0
  59 SI   1     2.9809     5.6330  63 SI   0 0 1
  59 SI   1     2.9877     5.6459  72 SI   0-1 0

  60 SI   1     1.6107     3.0437  43 O    0 0 0
  60 SI   1     1.6129     3.0480  39 O    0 0 0
  60 SI   1     1.6294     3.0792  38 O    0 0 0
  60 SI   1     1.8144     3.4286   9 O    0 0 0
  60 SI   1     2.8468     5.3797  66 SI   0 0 0
  60 SI   1     2.8566     5.3981  70 SI   0 0 0

  61 SI   1     1.6098     3.0420  13 O    0-1 0
  61 SI   1     1.6139     3.0498  22 O    0 0 0
  61 SI   1     1.6218     3.0647  24 O    0 0 0
  61 SI   1     1.6325     3.0850  45 O    0 0 0
  61 SI   1     2.8712     5.4257  73 SI   0 0 0
  61 SI   1     2.8927     5.4663  76 SI   0 0 0

  62 SI   1     1.6215     3.0643  14 O    0 0 0
  62 SI   1     1.6307     3.0815  44 O    0 0 0
  62 SI   1     1.6331     3.0861  16 O   -1 0 0
  62 SI   1     1.6348     3.0893  42 O    0 0 0
  62 SI   1     2.8820     5.4462  78 SI   0 0 0
  62 SI   1     2.9099     5.4990  72 SI   0 0 0

  63 SI   1     1.6266     3.0738  33 O    0 0-1
  63 SI   1     1.6357     3.0911  32 O    0 0 0
  63 SI   1     1.6417     3.1024  29 O    0-1 0
  63 SI   1     1.6491     3.1163  51 O    0 0-1
  63 SI   1     2.8926     5.4663  81 SI   0 0 0
  63 SI   1     2.9809     5.6330  59 SI   0 0-1

  64 SI   1     1.6139     3.0498  49 O    0 0 0
  64 SI   1     1.6265     3.0737  44 O    0 0 0
  64 SI   1     1.6509     3.1197  56 O    0 0 0
  64 SI   1     1.6697     3.1553  39 O    0 0 0
  64 SI   1     2.9729     5.6181  60 SI   0 0 0
  64 SI   1     3.0825     5.8250  62 SI   0 0 0

  65 SI   1     1.6263     3.0733  52 O    0 0 0
  65 SI   1     1.6279     3.0763  17 O    0 0 0
  65 SI   1     1.6591     3.1352  20 O    0 0 0
  65 SI   1     1.7067     3.2252  28 O    0 1 0
  65 SI   1     3.1035     5.8648  75 SI   0 0 0
  65 SI   1     3.1563     5.9645  76 SI   0 1 0

  66 SI   1     1.6301     3.0805  55 O    0 0 0
  66 SI   1     1.6352     3.0901  37 O    0 0 0
  66 SI   1     1.8430     3.4828   9 O    0 0 0
  66 SI   1     2.8468     5.3797  60 SI   0 0 0
  66 SI   1     2.9391     5.5541  38 O    0 0 0
  66 SI   1     2.9857     5.6422  78 SI   1 0 0

  67 SI   1     1.6075     3.0378  48 O    0-1 0
  67 SI   1     1.6244     3.0696  50 O    1 0-1
  67 SI   1     1.6352     3.0902  18 O    0 0 0
  67 SI   1     1.6386     3.0965  15 O    1 0 0
  67 SI   1     2.9906     5.6514  59 SI   1 0-1
  67 SI   1     3.0214     5.7096  81 SI   1 0 0

  68 SI   1     1.6285     3.0775  24 O    0 0 0
  68 SI   1     1.6304     3.0810  51 O    0 0 0
  68 SI   1     1.6559     3.1292  30 O    0 0 0
  68 SI   1     1.6625     3.1416  55 O    0 0 0
  68 SI   1     2.9318     5.5404  61 SI   0 0 0
  68 SI   1     2.9800     5.6314  73 SI   0 0 0

  69 SI   1     1.6068     3.0364  35 O    1 0 0
  69 SI   1     1.6282     3.0769  27 O    0 0 1
  69 SI   1     1.6353     3.0903  25 O    0 0 0
  69 SI   1     1.6471     3.1125  11 O    0 0 0
  69 SI   1     2.9872     5.6450  77 SI   0 0 0
  69 SI   1     2.9976     5.6647  84 SI   1 0 0

  70 SI   1     1.6071     3.0369  34 O    0 0 0
  70 SI   1     1.6263     3.0733   6 O    0 0 0
  70 SI   1     1.6304     3.0809  26 O    0 0 0
  70 SI   1     1.6420     3.1029  43 O    0 0 0
  70 SI   1     2.8566     5.3981  60 SI   0 0 0
  70 SI   1     2.9863     5.6433  75 SI   0 0 0

  71 SI   1     1.6424     3.1036  29 O    0 0 0
  71 SI   1     1.6481     3.1145   8 O    0 0 0
  71 SI   1     1.6593     3.1356  19 O    0 0 0
  71 SI   1     1.6620     3.1408   4 O    0 1 0
  71 SI   1     2.9656     5.6042  81 SI   0 1 0
  71 SI   1     2.9670     5.6068  82 SI   0 0 0

  72 SI   1     1.6227     3.0664  14 O    0 0 0
  72 SI   1     1.6293     3.0789  46 O    0 0 0
  72 SI   1     1.6394     3.0980  12 O    0 0 0
  72 SI   1     1.6492     3.1166  52 O   -1 0 0
  72 SI   1     2.9099     5.4990  62 SI   0 0 0
  72 SI   1     2.9877     5.6459  59 SI   0 1 0

  73 SI   1     1.6007     3.0250  47 O    0 0 0
  73 SI   1     1.6201     3.0616  22 O    0 0 0
  73 SI   1     1.6225     3.0661   1 O    0 0 0
  73 SI   1     1.6675     3.1512  30 O    0 0 0
  73 SI   1     2.8712     5.4257  61 SI   0 0 0
  73 SI   1     2.9041     5.4879  78 SI   0 0 0

  74 SI   1     1.6027     3.0286  48 O    0 0 0
  74 SI   1     1.6209     3.0631  27 O    0 0 0
  74 SI   1     1.6259     3.0726  21 O    0 0 0
  74 SI   1     1.6309     3.0819  36 O    0 0 0
  74 SI   1     2.9736     5.6193  75 SI   0 0 0
  74 SI   1     3.0128     5.6934  69 SI   0 0-1

  75 SI   1     1.6158     3.0534  21 O    0 0 0
  75 SI   1     1.6242     3.0693   8 O    0 0 0
  75 SI   1     1.6364     3.0924  17 O    0 0 0
  75 SI   1     1.6378     3.0949  26 O    0 0 0
  75 SI   1     2.9736     5.6193  74 SI   0 0 0
  75 SI   1     2.9863     5.6433  70 SI   0 0 0

  76 SI   1     1.6035     3.0302  45 O    0 0 0
  76 SI   1     1.6089     3.0403  53 O    0 0 0
  76 SI   1     1.6459     3.1103  28 O    0 0 0
  76 SI   1     1.8589     3.5128   9 O    0 0 0
  76 SI   1     2.8927     5.4663  61 SI   0 0 0
  76 SI   1     3.1563     5.9645  65 SI   0-1 0

  77 SI   1     1.6123     3.0468   7 O    0 0 0
  77 SI   1     1.6336     3.0871  25 O    0 0 0
  77 SI   1     1.6625     3.1416  20 O    0 0 0
  77 SI   1     1.6777     3.1705  38 O    0 0 0
  77 SI   1     2.9872     5.6450  69 SI   0 0 0
  77 SI   1     3.2124     6.0706  60 SI   0 0 0

  78 SI   1     1.6009     3.0252  10 O    0 0 0
  78 SI   1     1.6327     3.0854   1 O    0 0 0
  78 SI   1     1.6396     3.0984  16 O   -1 0 0
  78 SI   1     1.6811     3.1768  37 O   -1 0 0
  78 SI   1     2.8820     5.4462  62 SI   0 0 0
  78 SI   1     2.9041     5.4879  73 SI   0 0 0

  79 SI   1     1.6161     3.0540  36 O    0 0 0
  79 SI   1     1.6199     3.0611   2 O    1 0 0
  79 SI   1     1.6275     3.0755   6 O    0 0 0
  79 SI   1     1.6321     3.0842  42 O    1 0 0
  79 SI   1     3.0144     5.6964  62 SI   1 0 0
  79 SI   1     3.0170     5.7013  58 SI   1 0 0

  80 SI   1     1.6344     3.0886  34 O    0 0 0
  80 SI   1     1.6403     3.0998  23 O    0 0-1
  80 SI   1     1.6404     3.0998  11 O    0 0-1
  80 SI   1     1.6745     3.1644  41 O    0 0 0
  80 SI   1     3.0040     5.6768  69 SI   0 0-1
  80 SI   1     3.0790     5.8185  70 SI   0 0 0

  81 SI   1     1.6322     3.0843  54 O    0 0 0
  81 SI   1     1.6367     3.0928  32 O    0 0 0
  81 SI   1     1.6489     3.1160  15 O    0 0 0
  81 SI   1     1.6518     3.1215   4 O    0 0 0
  81 SI   1     2.8926     5.4663  63 SI   0 0 0
  81 SI   1     2.9570     5.5879  58 SI   0 0 0

  82 SI   1     1.6311     3.0824  13 O    0 0 0
  82 SI   1     1.6348     3.0893  12 O    0 0 0
  82 SI   1     1.6385     3.0964  56 O    0 0 0
  82 SI   1     1.6558     3.1291  19 O    0 0 0
  82 SI   1     2.9670     5.6068  71 SI   0 0 0
  82 SI   1     2.9992     5.6677  61 SI   0 1 0

  83 SI   1     1.6187     3.0589  40 O    0 0 0
  83 SI   1     1.6307     3.0815  18 O    0 0 0
  83 SI   1     1.6534     3.1245  41 O    0 0 0
  83 SI   1     1.6688     3.1535  53 O    0 0 0
  83 SI   1     3.0414     5.7473  58 SI   1 0 0
  83 SI   1     3.1084     5.8741  67 SI   0 0 0

  84 SI   1     1.5910     3.0065  31 O    0 0 1
  84 SI   1     1.6502     3.1184  35 O    0 0 0
  84 SI   1     1.6612     3.1392  10 O    0 0 0
  84 SI   1     1.6739     3.1632   5 O    0 0 1
  84 SI   1     2.9889     5.6482  58 SI   0 0 1
  84 SI   1     2.9976     5.6647  69 SI  -1 0 0


 SYMMETRY ALLOWED INTERNAL DEGREE(S) OF FREEDOM: 249
 TTTTTTTTTTTTTTTTTTTTTTTTTTTTTT SYMM        TELAPSE        6.97 TCPU        2.41
 TTTTTTTTTTTTTTTTTTTTTTTTTTTTTT INT_SCREEN  TELAPSE        7.20 TCPU        2.64
 INFORMATION **** EXCBUF **** EXCH. BIPO BUFFER: WORDS USED =      360000
 WARNING **** EXCBUF **** EXCH. BIPO BUFFER TOO SMALL - TO AVOID I/O SET EXCHSIZE =     9164232
[r2i4n2:19347] 15 more processes have sent help message help-opal-shmem-mmap.txt / mmap on nfs
[r2i4n2:19347] Set MCA parameter "orte_base_help_aggregate" to 0 to see all help / error messages

 DFT PARAMETERS

     ATOM       ELECTRONS   NET CHARGE   R(ANGSTROM)
   1   8  O       8.0000      0.0000     0.74000000
  57  14  SI     14.0000      0.0000     1.17000000

 SIZE OF GRID=    2582831
 TTTTTTTTTTTTTTTTTTTTTTTTTTTTTT MAKE_GRID2  TELAPSE      245.86 TCPU      215.13
 BECKE WEIGHT FUNCTION
 RADSAFE =     2.00
 TOLERANCES - DENSITY:10**- 6; POTENTIAL:10**- 9; GRID WGT:10**-14

 RADIAL INTEGRATION  - INTERVALS (POINTS,UPPER LIMIT):            1( 75,  4.0*R)

 ANGULAR INTEGRATION - INTERVALS (ACCURACY LEVEL [N. POINTS] UPPER LIMIT):
  1(  4[  86]   0.2)  2(  8[ 194]   0.5)  3( 12[ 350]   0.9)  4( 16[ 974]   3.5)
  5( 12[ 350]9999.0)
 TTTTTTTTTTTTTTTTTTTTTTTTTTTTTT INT_CALC    TELAPSE      246.48 TCPU      215.67
 EEEEEEEEEE INT_CALC TERMINATION  DATE 28 07 2015 TIME 20:49:19.6

 *******************************************************************************
 Created with astools                                                            
 CRYSTAL - SCF - TYPE OF CALCULATION :  UNRESTRICTED OPEN SHELL
 *******************************************************************************

 CAPPA:IS1  3;IS2  3;IS3  3; K PTS MONK NET   14; SYMMOPS: K SPACE  2;G SPACE  1

 TTTTTTTTTTTTTTTTTTTTTTTTTTTTTT SDIK        TELAPSE      248.20 TCPU      217.35

 AAAAAAAAAAAAAAAAAAAAAAAAAAAAAAAAAAAAAAAAAAAAAAAAAAAAAAAAAAAAAAAAAAAAAAAAAAAAAAA
         ATOMIC WAVEFUNCTION(S)


 NUCLEAR CHARGE  8.0  SYMMETRY SPECIES            S    P
 N. ELECTRONS    8.0  NUMBER OF PRIMITIVE GTOS   14    6
                      NUMBER OF CONTRACTED GTOS   4    3
                      NUMBER OF CLOSED SHELLS     2    0
                      OPEN SHELL OCCUPATION       0    4

  ZNUC SCFIT  TOTAL HF ENERGY   KINETIC ENERGY   VIRIAL THEOREM ACCURACY
   8.0  13   -7.480020171E+01  7.461435896E+01 -2.002490710E+00  2.7E-06

 NUCLEAR CHARGE 14.0  SYMMETRY SPECIES            S    P
 N. ELECTRONS   14.0  NUMBER OF PRIMITIVE GTOS   19   11
                      NUMBER OF CONTRACTED GTOS   5    4
                      NUMBER OF CLOSED SHELLS     3    1
                      OPEN SHELL OCCUPATION       0    2

  ZNUC SCFIT  TOTAL HF ENERGY   KINETIC ENERGY   VIRIAL THEOREM ACCURACY
  14.0  10   -2.888293902E+02  2.890755171E+02 -1.999148572E+00  3.0E-06

 AAAAAAAAAAAAAAAAAAAAAAAAAAAAAAAAAAAAAAAAAAAAAAAAAAAAAAAAAAAAAAAAAAAAAAAAAAAAAAA

 CHARGE NORMALIZATION FACTOR   1.00000000
 TOTAL ATOMIC CHARGES:
   8.0000000   8.0000000   8.0000000   8.0000000   8.0000000   8.0000000
   8.0000000   8.0000000   8.0000000   8.0000000   8.0000000   8.0000000
   8.0000000   8.0000000   8.0000000   8.0000000   8.0000000   8.0000000
   8.0000000   8.0000000   8.0000000   8.0000000   8.0000000   8.0000000
   8.0000000   8.0000000   8.0000000   8.0000000   8.0000000   8.0000000
   8.0000000   8.0000000   8.0000000   8.0000000   8.0000000   8.0000000
   8.0000000   8.0000000   8.0000000   8.0000000   8.0000000   8.0000000
   8.0000000   8.0000000   8.0000000   8.0000000   8.0000000   8.0000000
   8.0000000   8.0000000   8.0000000   8.0000000   8.0000000   8.0000000
   8.0000000   8.0000000  14.0000000  14.0000000  14.0000000  14.0000000
  14.0000000  14.0000000  14.0000000  14.0000000  14.0000000  14.0000000
  14.0000000  14.0000000  14.0000000  14.0000000  14.0000000  14.0000000
  14.0000000  14.0000000  14.0000000  14.0000000  14.0000000  14.0000000
  14.0000000  14.0000000  14.0000000  14.0000000  14.0000000  14.0000000
 SUMMED SPIN DENSITY           0.00000000
 TOTAL ATOMIC SPINS  :
   0.0000000   0.0000000   0.0000000   0.0000000   0.0000000   0.0000000
   0.0000000   0.0000000   0.0000000   0.0000000   0.0000000   0.0000000
   0.0000000   0.0000000   0.0000000   0.0000000   0.0000000   0.0000000
   0.0000000   0.0000000   0.0000000   0.0000000   0.0000000   0.0000000
   0.0000000   0.0000000   0.0000000   0.0000000   0.0000000   0.0000000
   0.0000000   0.0000000   0.0000000   0.0000000   0.0000000   0.0000000
   0.0000000   0.0000000   0.0000000   0.0000000   0.0000000   0.0000000
   0.0000000   0.0000000   0.0000000   0.0000000   0.0000000   0.0000000
   0.0000000   0.0000000   0.0000000   0.0000000   0.0000000   0.0000000
   0.0000000   0.0000000   0.0000000   0.0000000   0.0000000   0.0000000
   0.0000000   0.0000000   0.0000000   0.0000000   0.0000000   0.0000000
   0.0000000   0.0000000   0.0000000   0.0000000   0.0000000   0.0000000
   0.0000000   0.0000000   0.0000000   0.0000000   0.0000000   0.0000000
   0.0000000   0.0000000   0.0000000   0.0000000   0.0000000   0.0000000
 TTTTTTTTTTTTTTTTTTTTTTTTTTTTTT MOQGAD      TELAPSE      257.22 TCPU      226.33
 TTTTTTTTTTTTTTTTTTTTTTTTTTTTTT SHELLX      TELAPSE      274.90 TCPU      243.93
 TTTTTTTTTTTTTTTTTTTTTTTTTTTTTT MONMO3      TELAPSE      277.01 TCPU      246.04
 NUMERICALLY INTEGRATED DENSITY    419.9999823125    419.9999823125
 TTTTTTTTTTTTTTTTTTTTTTTTTTTTTT NUMDFT      TELAPSE      278.73 TCPU      247.72
 CYC   0 ETOT(AU) -1.233953729441E+04 DETOT -1.23E+04 tst  0.00E+00 PX  1.00E+00
 TTTTTTTTTTTTTTTTTTTTTTTTTTTTTT FDIK        TELAPSE      468.61 TCPU      431.32

    ALPHA      ELECTRONS
 INSULATING STATE
 TOP OF VALENCE BANDS -    BAND    420; K    6; EIG -3.6730545E-01 AU
 TOP OF VALENCE BANDS -    BAND    420; K    1; EIG -3.6730702E-01 AU
 BOTTOM OF VIRTUAL BANDS - BAND    421; K    1; EIG -1.8476912E-01 AU

    BETA       ELECTRONS
 INSULATING STATE
 TOP OF VALENCE BANDS -    BAND    420; K    6; EIG -3.6730545E-01 AU
 TOP OF VALENCE BANDS -    BAND    420; K    1; EIG -3.6730702E-01 AU
 BOTTOM OF VIRTUAL BANDS - BAND    421; K    1; EIG -1.8476912E-01 AU
 TTTTTTTTTTTTTTTTTTTTTTTTTTTTTT PDIG        TELAPSE      563.25 TCPU      520.12
 CHARGE NORMALIZATION FACTOR   1.00000000
 TOTAL ATOMIC CHARGES:
   8.8991684   8.9143761   9.2377887   8.9155016   8.9109075   8.8974535
   8.9934956   8.9374527   8.9733229   8.9308791   8.9161730   8.9338768
   8.8903646   8.8944113   8.8917915   8.9032512   8.9300759   8.9267035
   8.9061842   8.9677844   8.8977525   8.8648306   8.9442306   8.9242708
   8.9102806   8.8723134   8.8920134   8.9496051   8.9353055   8.9163295
   9.1859513   8.9068153   8.8876536   8.8947513   8.9049105   8.9232174
   8.8968589   8.9222763   8.8878250   8.9444720   8.9550472   8.9043192
   8.8825525   8.9134227   8.8728185   8.9018060   8.9093675   8.9278938
   8.9275075   8.9137433   8.8882198   8.9252330   8.9410877   8.8814486
   8.9298379   8.9278782  12.2015783  12.2008384  12.1973884  12.1052905
  12.2784218  12.2263186  12.1688098  12.1622716  12.0476661  11.6000396
  12.1587180  12.1081034  12.2216912  12.2759513  12.1262827  12.1497346
  12.2185324  12.1656895  12.2115143  12.0273285  12.0913731  12.1828230
  12.1649959  12.1272471  12.2435583  12.1357597  12.0705423  12.2967221
 SUMMED SPIN DENSITY           0.00000000
 TOTAL ATOMIC SPINS  :
   0.0000000   0.0000000   0.0000000   0.0000000   0.0000000   0.0000000
   0.0000000   0.0000000   0.0000000   0.0000000   0.0000000   0.0000000
   0.0000000   0.0000000   0.0000000   0.0000000   0.0000000   0.0000000
   0.0000000   0.0000000   0.0000000   0.0000000   0.0000000   0.0000000
   0.0000000   0.0000000   0.0000000   0.0000000   0.0000000   0.0000000
   0.0000000   0.0000000   0.0000000   0.0000000   0.0000000   0.0000000
   0.0000000   0.0000000   0.0000000   0.0000000   0.0000000   0.0000000
   0.0000000   0.0000000   0.0000000   0.0000000   0.0000000   0.0000000
   0.0000000   0.0000000   0.0000000   0.0000000   0.0000000   0.0000000
   0.0000000   0.0000000   0.0000000   0.0000000   0.0000000   0.0000000
   0.0000000   0.0000000   0.0000000   0.0000000   0.0000000   0.0000000
   0.0000000   0.0000000   0.0000000   0.0000000   0.0000000   0.0000000
   0.0000000   0.0000000   0.0000000   0.0000000   0.0000000   0.0000000
   0.0000000   0.0000000   0.0000000   0.0000000   0.0000000   0.0000000
 TTTTTTTTTTTTTTTTTTTTTTTTTTTTTT MOQGAD      TELAPSE      564.10 TCPU      520.46
 TTTTTTTTTTTTTTTTTTTTTTTTTTTTTT SHELLX      TELAPSE      583.92 TCPU      540.10
 TTTTTTTTTTTTTTTTTTTTTTTTTTTTTT MONMO3      TELAPSE      592.91 TCPU      549.08
 NUMERICALLY INTEGRATED DENSITY    419.9999963924    419.9999963924
 TTTTTTTTTTTTTTTTTTTTTTTTTTTTTT NUMDFT      TELAPSE      596.62 TCPU      552.78
 CYC   1 ETOT(AU) -1.231598055275E+04 DETOT  2.36E+01 tst  0.00E+00 PX  1.00E+00
 TTTTTTTTTTTTTTTTTTTTTTTTTTTTTT FDIK        TELAPSE      678.59 TCPU      627.52

    ALPHA      ELECTRONS
 INSULATING STATE
 TOP OF VALENCE BANDS -    BAND    420; K    6; EIG -3.3000580E-01 AU
 TOP OF VALENCE BANDS -    BAND    420; K    1; EIG -3.3000660E-01 AU
 BOTTOM OF VIRTUAL BANDS - BAND    421; K    1; EIG -1.9369344E-01 AU

    BETA       ELECTRONS
 INSULATING STATE
 TOP OF VALENCE BANDS -    BAND    420; K    6; EIG -3.3000580E-01 AU
 TOP OF VALENCE BANDS -    BAND    420; K    1; EIG -3.3000660E-01 AU
 BOTTOM OF VIRTUAL BANDS - BAND    421; K    1; EIG -1.9369344E-01 AU
 TTTTTTTTTTTTTTTTTTTTTTTTTTTTTT PDIG        TELAPSE      748.83 TCPU      690.31
 CHARGE NORMALIZATION FACTOR   1.00000000
 TOTAL ATOMIC CHARGES:
   8.8584098   8.8739111   9.1794204   8.8768333   8.8783751   8.8645870
   8.9557861   8.9039063   8.9587481   8.8961359   8.8878255   8.9018018
   8.8530850   8.8552894   8.8545377   8.8721724   8.8956353   8.8907314
   8.8643719   8.9310401   8.8568234   8.8210342   8.9096002   8.8852133
   8.8765298   8.8329186   8.8534709   8.9139105   8.8912814   8.8751050
   9.1244883   8.8650600   8.8446730   8.8546362   8.8640386   8.8877723
   8.8458541   8.8883433   8.8460207   8.9126409   8.9177902   8.8690280
   8.8406424   8.8763215   8.8287538   8.8617464   8.8762665   8.8909428
   8.8869483   8.8773822   8.8474615   8.8893920   8.9036643   8.8410405
   8.8870781   8.8935521  12.2898314  12.2761821  12.2717335  12.1856081
  12.3623031  12.2993552  12.2497367  12.2382524  12.1148746  11.7073258
  12.2318956  12.1790671  12.2993100  12.3517393  12.2036533  12.2184040
  12.2949145  12.2365225  12.2859143  12.0979820  12.1657900  12.2597013
  12.2363406  12.1986435  12.3239090  12.2053003  12.1396040  12.3860766
 SUMMED SPIN DENSITY           0.00000000
 TOTAL ATOMIC SPINS  :
   0.0000000   0.0000000   0.0000000   0.0000000   0.0000000   0.0000000
   0.0000000   0.0000000   0.0000000   0.0000000   0.0000000   0.0000000
   0.0000000   0.0000000   0.0000000   0.0000000   0.0000000   0.0000000
   0.0000000   0.0000000   0.0000000   0.0000000   0.0000000   0.0000000
   0.0000000   0.0000000   0.0000000   0.0000000   0.0000000   0.0000000
   0.0000000   0.0000000   0.0000000   0.0000000   0.0000000   0.0000000
   0.0000000   0.0000000   0.0000000   0.0000000   0.0000000   0.0000000
   0.0000000   0.0000000   0.0000000   0.0000000   0.0000000   0.0000000
   0.0000000   0.0000000   0.0000000   0.0000000   0.0000000   0.0000000
   0.0000000   0.0000000   0.0000000   0.0000000   0.0000000   0.0000000
   0.0000000   0.0000000   0.0000000   0.0000000   0.0000000   0.0000000
   0.0000000   0.0000000   0.0000000   0.0000000   0.0000000   0.0000000
   0.0000000   0.0000000   0.0000000   0.0000000   0.0000000   0.0000000
   0.0000000   0.0000000   0.0000000   0.0000000   0.0000000   0.0000000
 TTTTTTTTTTTTTTTTTTTTTTTTTTTTTT MOQGAD      TELAPSE      751.90 TCPU      693.37
 TTTTTTTTTTTTTTTTTTTTTTTTTTTTTT SHELLX      TELAPSE      772.52 TCPU      713.68
 TTTTTTTTTTTTTTTTTTTTTTTTTTTTTT MONMO3      TELAPSE      775.81 TCPU      716.97
 NUMERICALLY INTEGRATED DENSITY    419.9999958089    419.9999958089
 TTTTTTTTTTTTTTTTTTTTTTTTTTTTTT NUMDFT      TELAPSE      779.37 TCPU      720.48
 CYC   2 ETOT(AU) -1.231714197521E+04 DETOT -1.16E+00 tst  2.14E-05 PX  2.35E-02
 TTTTTTTTTTTTTTTTTTTTTTTTTTTTTT FDIK        TELAPSE      858.29 TCPU      793.25

    ALPHA      ELECTRONS
 INSULATING STATE
 TOP OF VALENCE BANDS -    BAND    420; K    6; EIG -2.9680954E-01 AU
 TOP OF VALENCE BANDS -    BAND    420; K    1; EIG -2.9680988E-01 AU
 BOTTOM OF VIRTUAL BANDS - BAND    421; K    1; EIG -2.0183818E-01 AU

    BETA       ELECTRONS
 INSULATING STATE
 TOP OF VALENCE BANDS -    BAND    420; K    6; EIG -2.9680954E-01 AU
 TOP OF VALENCE BANDS -    BAND    420; K    1; EIG -2.9680988E-01 AU
 BOTTOM OF VIRTUAL BANDS - BAND    421; K    1; EIG -2.0183818E-01 AU
 TTTTTTTTTTTTTTTTTTTTTTTTTTTTTT PDIG        TELAPSE      912.99 TCPU      846.95
 CHARGE NORMALIZATION FACTOR   1.00000000
 TOTAL ATOMIC CHARGES:
   8.8222784   8.8379821   9.1237104   8.8423147   8.8494304   8.8356015
   8.9216365   8.8745084   8.9462674   8.8649124   8.8629963   8.8736575
   8.8201097   8.8205157   8.8216945   8.8449541   8.8652916   8.8588684
   8.8271432   8.8985248   8.8204515   8.7817445   8.8785710   8.8504845
   8.8465426   8.7981093   8.8195103   8.8824683   8.8517774   8.8383222
   9.0664774   8.8275641   8.8062092   8.8188884   8.8275307   8.8563172
[...]
 TOTAL ATOMIC SPINS  :
   0.0000412   0.0000017  -0.0081164   0.0000014  -0.0009077   0.0000035
  -0.0001147   0.0000055   0.0004054  -0.0000211   0.0001850   0.0000021
   0.0000045   0.0000063   0.0000026   0.0000135   0.0000037   0.0000059
   0.0000030   0.0000115   0.0000029   0.0000024  -0.0000598   0.0000548
   0.0002607   0.0000114   0.0000037   0.0000150  -0.0000019   0.0000040
  -0.0119140  -0.0000054   0.0000022   0.0000163  -0.0000711   0.0000006
   0.0015340   0.0009471   0.0000670  -0.0000533   0.0000023   0.0000031
   0.0000234   0.0000103   0.0000700   0.0000020   0.0000052   0.0000008
  -0.0000171   0.0000024   0.0000422   0.0000028   0.0000544  -0.0000023
   0.0006898   0.0000116  -0.0005908   0.0000027  -0.0000022   0.0003744
   0.0000322  -0.0000014   0.0000089  -0.0000229   0.0000238   0.0166381
  -0.0000029   0.0002621  -0.0000296   0.0000242  -0.0000038  -0.0000012
   0.0000088   0.0000009  -0.0000022   0.0005451   0.0000672   0.0002773
  -0.0000017   0.0000198  -0.0000035   0.0000032   0.0000003  -0.0008813
 TTTTTTTTTTTTTTTTTTTTTTTTTTTTTT MOQGAD      TELAPSE    12289.86 TCPU    11498.26
 TTTTTTTTTTTTTTTTTTTTTTTTTTTTTT SHELLX      TELAPSE    12309.87 TCPU    11517.79
 TTTTTTTTTTTTTTTTTTTTTTTTTTTTTT MONMO3      TELAPSE    12313.90 TCPU    11521.82
 NUMERICALLY INTEGRATED DENSITY    419.9999904486    419.9999904529
 TTTTTTTTTTTTTTTTTTTTTTTTTTTTTT NUMDFT      TELAPSE    12317.74 TCPU    11525.64
 CYC  83 ETOT(AU) -1.232102993882E+04 DETOT -6.29E-04 tst  2.19E-06 PX  4.87E-02
 MODIFIED BROYDEN: MIX%=  90 W0=  1.000000000000E-04 W=  5.016415951392E+01
 TTTTTTTTTTTTTTTTTTTTTTTTTTTTTT FDIK        TELAPSE    12358.85 TCPU    11558.31

    ALPHA      ELECTRONS
 INSULATING STATE
 TOP OF VALENCE BANDS -    BAND    420; K   10; EIG -1.5186875E-01 AU
 TOP OF VALENCE BANDS -    BAND    420; K    1; EIG -1.5247201E-01 AU
 BOTTOM OF VIRTUAL BANDS - BAND    421; K    1; EIG -1.4812457E-01 AU

    BETA       ELECTRONS
 INSULATING STATE
 TOP OF VALENCE BANDS -    BAND    420; K   10; EIG -1.5188840E-01 AU
 TOP OF VALENCE BANDS -    BAND    420; K    1; EIG -1.5247201E-01 AU
 BOTTOM OF VIRTUAL BANDS - BAND    421; K    1; EIG -1.4812203E-01 AU
 TTTTTTTTTTTTTTTTTTTTTTTTTTTTTT PDIG        TELAPSE    12410.02 TCPU    11608.67
 CHARGE NORMALIZATION FACTOR   1.00000000
 TOTAL ATOMIC CHARGES:
   8.5356049   8.5664491   8.4029147   8.5554734   8.5768695   8.5623319
   8.6767963   8.6320284   8.8509507   8.6394298   8.6168732   8.6567060
   8.5463633   8.5321494   8.5491691   8.5743511   8.6205861   8.6020518
   8.5293326   8.6638107   8.5286818   8.4565022   8.6139018   8.5630137
   8.5823825   8.5216567   8.5569637   8.6355673   8.5547549   8.5568601
   8.4774366   8.5168247   8.5100519   8.5546401   8.5550035   8.6170645
   8.5586491   8.6378527   8.5251848   8.6340536   8.6400657   8.5977098
   8.5415352   8.5780432   8.4752510   8.5436784   8.6048560   8.6005067
   8.5611172   8.5577030   8.5251505   8.6012044   8.6322285   8.5129675
   8.5962409   8.6204597  12.8576106  12.9004041  12.8754420  12.8040665
  13.0520984  12.9155886  12.9217431  12.8472191  12.6661060  12.9699939
  12.8345587  12.7929400  12.9108829  12.9728563  12.8492999  12.7710543
  12.9192396  12.8042829  12.8863276  12.7074159  12.7134954  12.8639748
  12.8017851  12.7672664  12.9777882  12.7703106  12.6841893  12.9260541
 SUMMED SPIN DENSITY           0.00000000
 TOTAL ATOMIC SPINS  :
   0.0001231   0.0000030  -0.0324799   0.0000024  -0.0020121   0.0000093
  -0.0005899   0.0000115   0.0012986  -0.0000575   0.0006198   0.0000045
   0.0000081   0.0000116   0.0000030   0.0000414   0.0000092   0.0000181
   0.0000043   0.0000491   0.0000028   0.0000056  -0.0002021   0.0001823
   0.0008055   0.0000311   0.0000088   0.0000465  -0.0000106   0.0000168
  -0.0290681  -0.0000133   0.0000061   0.0000310  -0.0001721   0.0000008
   0.0047201   0.0028751   0.0001437  -0.0001293   0.0000036   0.0000059
   0.0000718   0.0000243   0.0002086   0.0000014   0.0000146   0.0000012
  -0.0000272   0.0000048   0.0001358   0.0000076   0.0001664  -0.0000055
   0.0022823   0.0000331  -0.0023223  -0.0000324   0.0000029   0.0011990
   0.0001131   0.0000007   0.0000346  -0.0000417   0.0000803   0.0508760
  -0.0000015   0.0008077  -0.0000885   0.0000853  -0.0000045   0.0000049
   0.0000297   0.0000093   0.0000033   0.0017013   0.0002855   0.0008537
   0.0000018   0.0000415  -0.0000037   0.0000155   0.0000068  -0.0029457
 TTTTTTTTTTTTTTTTTTTTTTTTTTTTTT MOQGAD      TELAPSE    12410.67 TCPU    11609.24
 TTTTTTTTTTTTTTTTTTTTTTTTTTTTTT SHELLX      TELAPSE    12431.79 TCPU    11629.72
 TTTTTTTTTTTTTTTTTTTTTTTTTTTTTT MONMO3      TELAPSE    12433.23 TCPU    11631.16
 NUMERICALLY INTEGRATED DENSITY    419.9999904404    419.9999904614
 TTTTTTTTTTTTTTTTTTTTTTTTTTTTTT NUMDFT      TELAPSE    12436.79 TCPU    11634.70
 CYC  84 ETOT(AU) -1.232103007605E+04 DETOT -1.37E-04 tst  1.37E-06 PX  5.05E-02
 MODIFIED BROYDEN: MIX%=  90 W0=  1.000000000000E-04 W=  7.419702596187E+01
 TTTTTTTTTTTTTTTTTTTTTTTTTTTTTT FDIK        TELAPSE    12487.41 TCPU    11681.31

    ALPHA      ELECTRONS
 INSULATING STATE
 TOP OF VALENCE BANDS -    BAND    420; K   10; EIG -1.5188851E-01 AU
 TOP OF VALENCE BANDS -    BAND    420; K    1; EIG -1.5246277E-01 AU
 BOTTOM OF VIRTUAL BANDS - BAND    421; K    1; EIG -1.4813786E-01 AU

    BETA       ELECTRONS
 INSULATING STATE
 TOP OF VALENCE BANDS -    BAND    420; K   10; EIG -1.5186040E-01 AU
 TOP OF VALENCE BANDS -    BAND    420; K    1; EIG -1.5246277E-01 AU
 BOTTOM OF VIRTUAL BANDS - BAND    421; K    1; EIG -1.4810137E-01 AU
 TTTTTTTTTTTTTTTTTTTTTTTTTTTTTT PDIG        TELAPSE    12551.40 TCPU    11743.28
 CHARGE NORMALIZATION FACTOR   1.00000000
 TOTAL ATOMIC CHARGES:
   8.5356232   8.5664452   8.3992707   8.5554778   8.5767374   8.5623342
   8.6766938   8.6320315   8.8509745   8.6394053   8.6169630   8.6567056
   8.5463698   8.5321484   8.5491794   8.5743523   8.6205821   8.6020656
   8.5293274   8.6638371   8.5286755   8.4565054   8.6138889   8.5630527
   8.5825005   8.5216624   8.5569733   8.6356166   8.5547485   8.5568327
   8.4746103   8.5168186   8.5100390   8.5546407   8.5549836   8.6170648
   8.5593492   8.6381907   8.5252277   8.6340490   8.6400756   8.5977192
   8.5415672   8.5780498   8.4752718   8.5436754   8.6048748   8.6005029
   8.5611076   8.5577143   8.5251761   8.6012106   8.6322684   8.5129631
   8.5964704   8.6204839  12.8573292  12.9004042  12.8754356  12.8041776
  13.0520930  12.9155740  12.9217497  12.8472148  12.6660967  12.9750890
  12.8345422  12.7930515  12.9108320  12.9728576  12.8493003  12.7710481
  12.9192424  12.8042802  12.8863310  12.7075921  12.7135053  12.8640067
  12.8017824  12.7672503  12.9777883  12.7703048  12.6841715  12.9258641
 SUMMED SPIN DENSITY           0.00000000
 TOTAL ATOMIC SPINS  :
   0.0000063  -0.0000020   0.0030556   0.0000032  -0.0004211   0.0000013
   0.0000882   0.0000039  -0.0000016  -0.0000124  -0.0000098   0.0000010
   0.0000044   0.0000017   0.0000065  -0.0000025  -0.0000013   0.0000043
  -0.0000010   0.0000006  -0.0000002   0.0000013  -0.0000041   0.0000053
   0.0000283   0.0000029   0.0000034   0.0000141  -0.0000011  -0.0000136
  -0.0046121  -0.0000040  -0.0000082   0.0000087  -0.0000337   0.0000012
   0.0001507   0.0001026   0.0000440  -0.0000181   0.0000040   0.0000050
   0.0000070   0.0000056   0.0000077   0.0000001   0.0000093  -0.0000020
  -0.0000141   0.0000063   0.0000046   0.0000034   0.0000086  -0.0000031
  -0.0000357   0.0000095   0.0001838   0.0000211  -0.0000065  -0.0000068
  -0.0000091  -0.0000045  -0.0000008  -0.0000162  -0.0000056   0.0014364
  -0.0000094   0.0000243  -0.0000144  -0.0000030  -0.0000028  -0.0000062
  -0.0000007  -0.0000043  -0.0000027   0.0000306  -0.0000442   0.0000199
  -0.0000040   0.0000080  -0.0000024  -0.0000038  -0.0000073   0.0000219
 TTTTTTTTTTTTTTTTTTTTTTTTTTTTTT MOQGAD      TELAPSE    12552.47 TCPU    11744.34
 TTTTTTTTTTTTTTTTTTTTTTTTTTTTTT SHELLX      TELAPSE    12573.59 TCPU    11764.14
 TTTTTTTTTTTTTTTTTTTTTTTTTTTTTT MONMO3      TELAPSE    12576.87 TCPU    11767.41
 NUMERICALLY INTEGRATED DENSITY    419.9999904506    419.9999904486
 TTTTTTTTTTTTTTTTTTTTTTTTTTTTTT NUMDFT      TELAPSE    12579.96 TCPU    11770.40
 CYC  85 ETOT(AU) -1.232102992647E+04 DETOT  1.50E-04 tst  3.17E-06 PX  7.29E-02
 MODIFIED BROYDEN: MIX%=  90 W0=  1.000000000000E-04 W=  6.765249979873E+01
 TTTTTTTTTTTTTTTTTTTTTTTTTTTTTT FDIK        TELAPSE    12653.72 TCPU    11832.68

    ALPHA      ELECTRONS
 INSULATING STATE
 TOP OF VALENCE BANDS -    BAND    420; K   10; EIG -1.5189284E-01 AU
 TOP OF VALENCE BANDS -    BAND    420; K    1; EIG -1.5246510E-01 AU
 BOTTOM OF VIRTUAL BANDS - BAND    421; K    1; EIG -1.4814037E-01 AU

    BETA       ELECTRONS
 INSULATING STATE
 TOP OF VALENCE BANDS -    BAND    420; K   10; EIG -1.5186132E-01 AU
 TOP OF VALENCE BANDS -    BAND    420; K    1; EIG -1.5246510E-01 AU
 BOTTOM OF VIRTUAL BANDS - BAND    421; K    1; EIG -1.4809993E-01 AU
 TTTTTTTTTTTTTTTTTTTTTTTTTTTTTT PDIG        TELAPSE    12702.17 TCPU    11874.73
 CHARGE NORMALIZATION FACTOR   1.00000000
 TOTAL ATOMIC CHARGES:
   8.5356167   8.5664307   8.4008287   8.5554810   8.5768185   8.5623302
   8.6767079   8.6320315   8.8509048   8.6393782   8.6169310   8.6567017
   8.5463680   8.5321375   8.5491863   8.5743397   8.6205716   8.6020691
   8.5293108   8.6638406   8.5286650   8.4565007   8.6138813   8.5630581
   8.5824584   8.5216572   8.5569740   8.6356330   8.5547440   8.5567991
   8.4759021   8.5168078   8.5100183   8.5546267   8.5549742   8.6170617
   8.5591031   8.6380490   8.5252177   8.6340509   8.6400748   8.5977240
   8.5415655   8.5780470   8.4752453   8.5436671   8.6048878   8.6004936
   8.5610805   8.5577175   8.5251778   8.6012124   8.6322602   8.5129510
   8.5963355   8.6204954  12.8574194  12.9004270  12.8754397  12.8041373
  13.0520994  12.9155804  12.9217588  12.8472315  12.6660979  12.9728340
  12.8345419  12.7930386  12.9108407  12.9728699  12.8493084  12.7710531
  12.9192501  12.8042901  12.8863438  12.7075358  12.7134908  12.8639951
  12.8017907  12.7672661  12.9777959  12.7703100  12.6841768  12.9259746
 SUMMED SPIN DENSITY           0.00000000
 TOTAL ATOMIC SPINS  :
   0.0000003  -0.0000002   0.0035926  -0.0000003  -0.0004234  -0.0000016
   0.0000900   0.0000002  -0.0000027  -0.0000106  -0.0000327   0.0000000
  -0.0000004   0.0000004  -0.0000005  -0.0000003  -0.0000007  -0.0000011
  -0.0000002  -0.0000064   0.0000000  -0.0000014  -0.0000126  -0.0000055
   0.0000080   0.0000004  -0.0000018  -0.0000007   0.0000012  -0.0000019
  -0.0045976  -0.0000012  -0.0000043   0.0000076  -0.0000367   0.0000000
   0.0000898   0.0000688   0.0000384  -0.0000208   0.0000001   0.0000000
  -0.0000006   0.0000023   0.0000029  -0.0000004   0.0000004  -0.0000003
  -0.0000088   0.0000002  -0.0000014  -0.0000003   0.0000016  -0.0000018
  -0.0000553   0.0000005   0.0002207   0.0000225  -0.0000012  -0.0000046
   0.0000018   0.0000012  -0.0000024  -0.0000137  -0.0000003   0.0010033
  -0.0000001   0.0000062   0.0000051   0.0000006   0.0000003   0.0000005
   0.0000014   0.0000009   0.0000005   0.0000205  -0.0000308   0.0000194
   0.0000002   0.0000231  -0.0000003   0.0000021  -0.0000014   0.0000536
 TTTTTTTTTTTTTTTTTTTTTTTTTTTTTT MOQGAD      TELAPSE    12702.78 TCPU    11875.33
 TTTTTTTTTTTTTTTTTTTTTTTTTTTTTT SHELLX      TELAPSE    12722.73 TCPU    11894.93
 TTTTTTTTTTTTTTTTTTTTTTTTTTTTTT MONMO3      TELAPSE    12725.25 TCPU    11897.45
 NUMERICALLY INTEGRATED DENSITY    419.9999904506    419.9999904496
 TTTTTTTTTTTTTTTTTTTTTTTTTTTTTT NUMDFT      TELAPSE    12728.44 TCPU    11900.59
 CYC  86 ETOT(AU) -1.232102993147E+04 DETOT -5.00E-06 tst  1.61E-08 PX  3.22E-03
 MODIFIED BROYDEN: MIX%=  90 W0=  1.000000000000E-04 W=  2.465608345618E+02
 TTTTTTTTTTTTTTTTTTTTTTTTTTTTTT FDIK        TELAPSE    12787.18 TCPU    11956.16

    ALPHA      ELECTRONS
 INSULATING STATE
 TOP OF VALENCE BANDS -    BAND    420; K   10; EIG -1.5191280E-01 AU
 TOP OF VALENCE BANDS -    BAND    420; K    1; EIG -1.5248721E-01 AU
 BOTTOM OF VIRTUAL BANDS - BAND    421; K    1; EIG -1.4815656E-01 AU

    BETA       ELECTRONS
 INSULATING STATE
 TOP OF VALENCE BANDS -    BAND    420; K   10; EIG -1.5186662E-01 AU
 TOP OF VALENCE BANDS -    BAND    420; K    1; EIG -1.5248721E-01 AU
 BOTTOM OF VIRTUAL BANDS - BAND    421; K    1; EIG -1.4809874E-01 AU
 TTTTTTTTTTTTTTTTTTTTTTTTTTTTTT PDIG        TELAPSE    12839.99 TCPU    12005.69
 CHARGE NORMALIZATION FACTOR   1.00000000
 TOTAL ATOMIC CHARGES:
   8.5355661   8.5664566   8.4042721   8.5554610   8.5765979   8.5623240
   8.6769309   8.6320252   8.8508077   8.6394233   8.6168616   8.6567263
   8.5463440   8.5321339   8.5491525   8.5742726   8.6205998   8.6020352
   8.5293396   8.6637927   8.5286918   8.4564947   8.6138053   8.5629752
   8.5822964   8.5216485   8.5569329   8.6355295   8.5547548   8.5568838
   8.4731941   8.5168469   8.5100616   8.5546241   8.5549738   8.6170707
   8.5589082   8.6377659   8.5251382   8.6340375   8.6400562   8.5977033
   8.5415064   8.5780412   8.4752256   8.5436645   8.6048520   8.6005076
   8.5611401   8.5577001   8.5251156   8.6012145   8.6321775   8.5129713
   8.5961813   8.6204178  12.8574251  12.9004185  12.8754627  12.8042937
  13.0521784  12.9156002  12.9217648  12.8472507  12.6661442  12.9727422
  12.8345905  12.7930690  12.9110145  12.9729020  12.8493089  12.7710723
  12.9192356  12.8043011  12.8863421  12.7075846  12.7135962  12.8640905
  12.8017993  12.7673562  12.9777693  12.7703344  12.6842448  12.9258765
 SUMMED SPIN DENSITY           0.00000000
 TOTAL ATOMIC SPINS  :
   0.0000066   0.0000012   0.0019758  -0.0000012  -0.0006010  -0.0000014
  -0.0000186   0.0000006   0.0000950  -0.0000107  -0.0000436   0.0000023
  -0.0000020   0.0000019  -0.0000030  -0.0000001   0.0000025  -0.0000026
   0.0000016  -0.0000071   0.0000017  -0.0000015  -0.0000629  -0.0000058
   0.0000684   0.0000022  -0.0000035  -0.0000066   0.0000017   0.0000063
  -0.0076308   0.0000006  -0.0000063   0.0000165  -0.0000698   0.0000008
   0.0004611   0.0003080   0.0000688  -0.0000349  -0.0000017  -0.0000018
   0.0000007   0.0000053   0.0000195  -0.0000002  -0.0000018   0.0000011
   0.0000221   0.0000001   0.0000010   0.0000006   0.0000073  -0.0000012
   0.0000394  -0.0000021   0.0000369   0.0000286  -0.0000009   0.0000624
   0.0000133   0.0000043  -0.0000021  -0.0000335   0.0000089   0.0051026
   0.0000024   0.0000623   0.0000133   0.0000078   0.0000002   0.0000009
   0.0000024   0.0000018   0.0000005   0.0001576  -0.0000165   0.0000894
   0.0000013   0.0000498  -0.0000016   0.0000063   0.0000047  -0.0002013
 TTTTTTTTTTTTTTTTTTTTTTTTTTTTTT MOQGAD      TELAPSE    12840.45 TCPU    12006.15
 TTTTTTTTTTTTTTTTTTTTTTTTTTTTTT SHELLX      TELAPSE    12860.59 TCPU    12025.63
 TTTTTTTTTTTTTTTTTTTTTTTTTTTTTT MONMO3      TELAPSE    12863.47 TCPU    12028.50
 NUMERICALLY INTEGRATED DENSITY    419.9999904473    419.9999904578
 TTTTTTTTTTTTTTTTTTTTTTTTTTTTTT NUMDFT      TELAPSE    12866.77 TCPU    12031.78
 CYC  87 ETOT(AU) -1.232102993143E+04 DETOT  4.07E-08 tst  1.25E-06 PX  5.67E-03
 MODIFIED BROYDEN: MIX%=  90 W0=  1.000000000000E-04 W=  7.776203490649E+01
 TTTTTTTTTTTTTTTTTTTTTTTTTTTTTT FDIK        TELAPSE    12918.41 TCPU    12079.23

    ALPHA      ELECTRONS
 INSULATING STATE
 TOP OF VALENCE BANDS -    BAND    420; K   10; EIG -1.5190222E-01 AU
 TOP OF VALENCE BANDS -    BAND    420; K    1; EIG -1.5247998E-01 AU
 BOTTOM OF VIRTUAL BANDS - BAND    421; K    1; EIG -1.4814163E-01 AU

    BETA       ELECTRONS
 INSULATING STATE
 TOP OF VALENCE BANDS -    BAND    420; K   10; EIG -1.5185710E-01 AU
 TOP OF VALENCE BANDS -    BAND    420; K    1; EIG -1.5247998E-01 AU
 BOTTOM OF VIRTUAL BANDS - BAND    421; K    1; EIG -1.4808460E-01 AU
 TTTTTTTTTTTTTTTTTTTTTTTTTTTTTT PDIG        TELAPSE    12965.32 TCPU    12120.54
 CHARGE NORMALIZATION FACTOR   1.00000000
 TOTAL ATOMIC CHARGES:
   8.5355731   8.5664576   8.3988672   8.5554648   8.5766931   8.5623262
   8.6767301   8.6320284   8.8508911   8.6394264   8.6168987   8.6567245
   8.5463410   8.5321370   8.5491508   8.5742748   8.6205995   8.6020354
   8.5293372   8.6638004   8.5286841   8.4564952   8.6138065   8.5629843
   8.5823662   8.5216484   8.5569234   8.6355415   8.5547358   8.5568870
   8.4750272   8.5168636   8.5100427   8.5546158   8.5549905   8.6170719
   8.5591981   8.6379675   8.5251516   8.6340355   8.6400567   8.5977022
   8.5415168   8.5780450   8.4752385   8.5436632   8.6048558   8.6005057
   8.5611547   8.5577071   8.5251286   8.6012157   8.6321939   8.5129671
   8.5963288   8.6204229  12.8572553  12.9004080  12.8754667  12.8043428
  13.0521834  12.9156030  12.9217627  12.8472497  12.6661507  12.9755263
  12.8345922  12.7931164  12.9109851  12.9729095  12.8493081  12.7710714
  12.9192421  12.8043036  12.8863386  12.7076782  12.7136313  12.8641177
  12.8017944  12.7673601  12.9777707  12.7703349  12.6842448  12.9257554
 SUMMED SPIN DENSITY           0.00000000
 TOTAL ATOMIC SPINS  :
   0.0000201   0.0000009  -0.0017435  -0.0000005  -0.0007571  -0.0000002
  -0.0001101   0.0000021   0.0002280  -0.0000177   0.0000171   0.0000015
  -0.0000011   0.0000031  -0.0000022   0.0000054   0.0000022   0.0000001
   0.0000009   0.0000000   0.0000000  -0.0000007  -0.0000876   0.0000143
   0.0001549   0.0000052  -0.0000030   0.0000023  -0.0000020   0.0000060
  -0.0100747   0.0000009  -0.0000107   0.0000177  -0.0000859   0.0000006
   0.0009411   0.0006090   0.0000868  -0.0000465  -0.0000012  -0.0000009
   0.0000102   0.0000079   0.0000405  -0.0000004   0.0000010   0.0000005
   0.0000254   0.0000017   0.0000171   0.0000010   0.0000280  -0.0000031
   0.0002690   0.0000038  -0.0002316   0.0000265   0.0000004   0.0001720
   0.0000228   0.0000041   0.0000007  -0.0000390   0.0000156   0.0102013
   0.0000015   0.0001399   0.0000005   0.0000160   0.0000000   0.0000014
   0.0000057   0.0000034   0.0000005   0.0003248   0.0000094   0.0001712
   0.0000012   0.0000533  -0.0000009   0.0000072   0.0000032  -0.0004883
 TTTTTTTTTTTTTTTTTTTTTTTTTTTTTT MOQGAD      TELAPSE    12966.05 TCPU    12121.01
 TTTTTTTTTTTTTTTTTTTTTTTTTTTTTT SHELLX      TELAPSE    12985.61 TCPU    12140.53
 +++ ENERGIES IN A.U. +++
 ::: EXT EL-POLE                                  -1.6761519175927E+04
 ::: EXT EL-SPHEROPOLE                             1.2253926721829E+02
 ::: BIELET ZONE E-E                               2.1038930050401E+04
 ::: TOTAL E-E                                     4.3999501416918E+03
 ::: TOTAL E-N + N-E                              -2.6415294509664E+04
 ::: TOTAL N-N                                    -1.5606492990017E+03
 ::: KINETIC ENERGY                                1.2272787933956E+04
 ::: PSEUDO TOTAL   ENERGY                        -1.1303205733018E+04
 ::: VIRIAL COEFFICIENT                            1.0411258254746E+00
 TTTTTTTTTTTTTTTTTTTTTTTTTTTTTT MONMO3      TELAPSE    12987.53 TCPU    12142.45
 NUMERICALLY INTEGRATED DENSITY    419.9999904416    419.9999904563
 TTTTTTTTTTTTTTTTTTTTTTTTTTTTTT NUMDFT      TELAPSE    12990.83 TCPU    12145.72
 CYC  88 ETOT(AU) -1.232102993565E+04 DETOT -4.22E-06 tst  2.37E-07 PX  5.67E-03

 == SCF ENDED - CONVERGENCE ON ENERGY      E(AU) -1.2321029935648E+04 CYCLES  88


 ENERGY EXPRESSION=HARTREE+FOCK EXCH*0.05000+(BECKE  EXCH)*0.95000+LYP    CORR

 FINITE TEMPERATURE DFT CALCULATION 
 TEMPERATURE      (T)    1.000000000000E-13 HARTREE 
 ENERGY           (E)   -1.232102993565E+04
 FREE ENERGY      (F)   -1.232102993565E+04
 ELECTRON ENTROPY (S)    0.000000000000E+00
 (E(T)+F(T))/2    (E0)  -1.232102993565E+04


 TOTAL ENERGY(DFT)(AU)( 88) -1.2321029935648E+04 DE-4.2E-06 tester 2.4E-07
 TTTTTTTTTTTTTTTTTTTTTTTTTTTTTT EDFT        TELAPSE    13023.97 TCPU    12178.27
 EIGENVECTORS IN FORTRAN UNIT  8
 TTTTTTTTTTTTTTTTTTTTTTTTTTTTTT END         TELAPSE    13044.00 TCPU    12195.93
 EEEEEEEEEE TERMINATION  DATE 29 07 2015 TIME 00:22:37.1
NODE    0 CPU TIME =     12195.934
    TOTAL CPU TIME =   2313824.325
