--------------------------------------------------------------------------
WARNING: Open MPI will create a shared memory backing file in a
directory that appears to be mounted on a network filesystem.
Creating the shared memory backup file on a network file system, such
as NFS or Lustre is not recommended -- it may cause excessive network
traffic to your file servers and/or cause shared memory traffic in
Open MPI to be much slower than expected.

You may want to check what the typical temporary directory is on your
node.  Possible sources of the location of this temporary directory
include the $TEMPDIR, $TEMP, and $TMP environment variables.

Note, too, that system administrators can set a list of filesystems
where Open MPI is disallowed from creating temporary files by settings
the MCA parameter "orte_no_session_dir".

  Local host: r2i2n8
  Fileame:    /ichec/work/scratch/tmp/390264.service1.cb3.ichec.ie/openmpi-sessions-emehes@r2i2n8_0/53175/1/shared_mem_pool.r2i2n8

You can set the MCA paramter shmem_mmap_enable_nfs_warning to 0 to
disable this message.
--------------------------------------------------------------------------
--------------------------------------------------------------------------
WARNING: It appears that your OpenFabrics subsystem is configured to only
allow registering part of your physical memory.  This can cause MPI jobs to
run with erratic performance, hang, and/or crash.

This may be caused by your OpenFabrics vendor limiting the amount of
physical memory that can be registered.  You should investigate the
relevant Linux kernel module parameters that control how much physical
memory can be registered, and increase them to allow registering all
physical memory on your machine.

See this Open MPI FAQ item for more information on these Linux kernel module
parameters:

    http://www.open-mpi.org/faq/?category=openfabrics#ib-locked-pages

  Local host:              r2i2n8
  Registerable memory:     32768 MiB
  Total memory:            65506 MiB

Your MPI job will continue, but may be behave poorly and/or hang.
--------------------------------------------------------------------------
         192 PROCESSORS WORKING

         
 *******************************************************************************
 *                                                                             *
 *                                CRYSTAL09                                    *
 *                              public : 2.0                                   *
 *                      December 10th, 2012 - parallel executable              *
 *                                                                             *
 *                                                                             *
 *                                                                             *
 *                              MAIN AUTHORS                                   *
 *                                                                             *
 *    R. DOVESI(1,10), V.R. SAUNDERS(2), C. ROETTI(1,10), R. ORLANDO (1,3),    *
 *  C.M. ZICOVICH-WILSON(1,4), F. PASCALE(5), B. CIVALLERI(1,10), K. DOLL(6),  *
 *       N.M. HARRISON(2,7), I. J. BUSH(2), Ph. D'ARCO(8), M. LLUNELL(9)       *
 *                                                                             *
 * (1) THEORETICAL CHEMISTRY GROUP - UNIVERSITA' DI TORINO - TORINO (ITALY)    *
 *      http://www.crystal.unito.it                                            *
 * (2) COMPUTATIONAL SCIENCE & ENGINEERING DEPARTMENT - STFC DARESBURY LABORATO*Y (UK)
 *     http://www.cse.stfc.ac.uk/cmg/CRYSTAL/                                  *
 * (3) UNIVERSITA' DEL PIEMONTE ORIENTALE - ALESSANDRIA (ITALY)                *
 * (4) UNIVERSIDAD AUTONOMA DEL ESTADO DE MORELOS - CUERNAVACA (MEXICO)        *
 * (5) UNIVERSITE' HENRI POINCARE' - NANCY (FRANCE)                            *
 * (6) MPI FUER FESTKOERPERFORSCHUNG - STUTTGART (GERMANY)                     *
 * (7) IMPERIAL COLLEGE - LONDON (UK)                                          *
 * (8) UNIVERSITE' PIERRE ET MARIE CURIE - PARIS (FRANCE)                      *
 * (9) UNIVERSIDAD DE BARCELONA - BARCELONA (SPAIN)                            *
 *(10) NIS - NANOSTRUCTURED INTERFACES AND SURFACES - TORINO (ITALY)           *
 *     http://www.crystal.unito.it                                             *
 *******************************************************************************
 EEEEEEEEEE STARTING  DATE 15 01 2015 TIME 04:06:47.9
 Created with astools                                                            

 CRYSTAL CALCULATION
 (INPUT ACCORDING TO THE INTERNATIONAL TABLES FOR X-RAY CRYSTALLOGRAPHY)
 CRYSTAL FAMILY                       :  TRICLINIC   
 CRYSTAL CLASS  (GROTH - 1921)        :  TRICLINIC PEDIAL                     

 SPACE GROUP (NONCENTROSYMMETRIC)     :  P 1             

 LATTICE PARAMETERS  (ANGSTROMS AND DEGREES) - CONVENTIONAL CELL
        A           B           C        ALPHA        BETA       GAMMA
    10.85580    10.63740    21.98810    90.00000    90.00000    90.00000


 NUMBER OF IRREDUCIBLE ATOMS IN THE CONVENTIONAL CELL:  156

 INPUT COORDINATES

 ATOM AT. N.              COORDINATES
   1   8     7.116600000000E-02  6.113700000000E-02  8.750400000000E-02
   2   8     1.490980000000E-01  6.505110000000E-01  3.363500000000E-02
   3   8     5.797720000000E-01  7.447600000000E-02  5.115700000000E-02
   4   8     5.805760000000E-01  5.759460000000E-01  8.298200000000E-02
   5   8     5.469400000000E-01  3.827280000000E-01  4.780000000000E-04
   6   8     8.972970000000E-01  6.334300000000E-01  5.118000000000E-03
   7   8     6.134150000000E-01  8.410870000000E-01  1.774700000000E-02
   8   8     1.809090000000E-01  4.316680000000E-01  5.522050000000E-01
   9   8     1.695120000000E-01  9.484750000000E-01  5.469520000000E-01
  10   8     6.301540000000E-01  4.318350000000E-01  5.268770000000E-01
  11   8     6.831490000000E-01  9.844010000000E-01  5.442420000000E-01
  12   8     4.965030000000E-01  2.902830000000E-01  6.487960000000E-01
  13   8     7.521980000000E-01  3.864990000000E-01  6.173020000000E-01
  14   8     5.477280000000E-01  5.364490000000E-01  6.180530000000E-01
  15   8     4.726050000000E-01  7.093150000000E-01  5.650790000000E-01
  16   8     3.420950000000E-01  2.402120000000E-01  5.668030000000E-01
  17   8     7.350280000000E-01  2.172800000000E-01  5.281800000000E-01
  18   8     9.804480000000E-01  1.218740000000E-01  5.876500000000E-01
  19   8     6.124900000000E-02  6.221910000000E-01  5.998700000000E-01
  20   8     9.029710000000E-01  9.347020000000E-01  6.444780000000E-01
  21   8     7.333300000000E-01  7.922740000000E-01  6.119020000000E-01
  22   8     3.507270000000E-01  5.944200000000E-02  6.444430000000E-01
  23   8     2.240460000000E-01  8.581780000000E-01  8.421850000000E-01
  24   8     2.517060000000E-01  2.911890000000E-01  6.766790000000E-01
  25   8     1.660150000000E-01  2.530640000000E-01  8.907250000000E-01
  26   8     1.805580000000E-01  5.197050000000E-01  6.971650000000E-01
  27   8     9.029570000000E-01  3.791320000000E-01 -5.148000000000E-03
  28   8     3.240060000000E-01  8.042400000000E-02  8.559040000000E-01
  29   8     6.158620000000E-01  1.763140000000E-01  7.542800000000E-01
  30   8     2.021580000000E-01  6.326810000000E-01  9.246390000000E-01
  31   8     7.755860000000E-01  6.892200000000E-02  8.266130000000E-01
  32   8     4.332560000000E-01  4.324070000000E-01  8.958600000000E-01
  33   8     2.337250000000E-01  4.699650000000E-01  8.311090000000E-01
  34   8     1.691900000000E-02  8.614800000000E-01  7.614930000000E-01
  35   8     1.007439000000E+00  8.650160000000E-01 -2.928000000000E-03
  36   8     1.015240000000E-01  7.877900000000E-02  6.895930000000E-01
  37   8     8.663150000000E-01  4.656380000000E-01  7.872450000000E-01
  38   8     3.930410000000E-01  6.338410000000E-01  8.269970000000E-01
  39   8     8.313770000000E-01  7.379370000000E-01  8.166930000000E-01
  40   8     4.858020000000E-01  9.811340000000E-01  9.477400000000E-01
  41   8     4.638330000000E-01  8.824460000000E-01  8.207410000000E-01
  42   8     5.479530000000E-01  7.444790000000E-01  9.042840000000E-01
  43   8     9.146940000000E-01  8.859300000000E-02  9.415610000000E-01
  44   8     6.793010000000E-01  1.524080000000E-01  9.351470000000E-01
  45   8     9.763080000000E-01  6.373620000000E-01  7.112170000000E-01
  46   8     1.129900000000E-02  9.169520000000E-01  8.800120000000E-01
  47   8     1.680780000000E-01  4.548800000000E-02  9.534990000000E-01
  48   8     3.324720000000E-01  4.952680000000E-01 -1.015000000000E-03
  49   8     3.764900000000E-02  4.568710000000E-01  8.746170000000E-01
  50   8     1.100410000000E-01  3.049830000000E-01  7.724950000000E-01
  51   8     8.667730000000E-01  2.793730000000E-01  8.711280000000E-01
  52   8     8.547480000000E-01  1.335060000000E-01  7.086620000000E-01
  53   8     2.961560000000E-01  9.686140000000E-01  7.457760000000E-01
  54   8     4.476800000000E-01  3.823390000000E-01  7.801080000000E-01
  55   8     4.305130000000E-01  8.357770000000E-01  6.650020000000E-01
  56   8     9.873390000000E-01  3.829430000000E-01  6.833820000000E-01
  57   8     6.623980000000E-01  3.668110000000E-01  8.320020000000E-01
  58   8     1.995530000000E-01  7.799980000000E-01  6.710780000000E-01
  59   8     5.967810000000E-01  6.857110000000E-01  7.735480000000E-01
  60   8     7.864780000000E-01  5.048730000000E-01  9.114920000000E-01
  61   8     7.170600000000E-02  6.818980000000E-01  8.296610000000E-01
  62   8     6.499180000000E-01  4.123560000000E-01  7.156860000000E-01
  63   8     3.716000000000E-01  7.594720000000E-01 -1.268900000000E-02
  64   8     3.636580000000E-01  2.333260000000E-01  9.514170000000E-01
  65  14     1.191820000000E-01  5.164680000000E-01  1.118540000000E-01
  66  14     4.341870000000E-01  1.893440000000E-01  8.564800000000E-02
  67  14     5.512900000000E-02  3.217740000000E-01  1.531690000000E-01
  68  14     3.228010000000E-01  6.799500000000E-02  1.573890000000E-01
  69  14     1.886900000000E-01  1.994080000000E-01  2.128540000000E-01
  70  14     4.436630000000E-01  4.348930000000E-01  2.144480000000E-01
  71  14     1.679290000000E-01  9.496680000000E-01  1.072860000000E-01
  72  14     4.655750000000E-01  6.657020000000E-01  1.062840000000E-01
  73  14     3.286400000000E-02  7.787260000000E-01  1.477820000000E-01
  74  14     3.101530000000E-01  5.604590000000E-01  1.570940000000E-01
  75  14     1.873980000000E-01  6.961010000000E-01  2.159740000000E-01
  76  14     4.314810000000E-01  9.435250000000E-01  2.246160000000E-01
  77  14     6.396280000000E-01  4.440630000000E-01  5.523200000000E-02
  78  14     9.538780000000E-01  1.638460000000E-01  9.691800000000E-02
  79  14     5.678150000000E-01  3.122050000000E-01  1.457300000000E-01
  80  14     7.993700000000E-01  4.694900000000E-02  1.442820000000E-01
  81  14     6.878870000000E-01  1.881830000000E-01  2.104930000000E-01
  82  14     9.296200000000E-01  4.488620000000E-01  2.159880000000E-01
  83  14     6.404340000000E-01  9.358830000000E-01  7.937000000000E-02
  84  14     1.000404000000E+00  7.293690000000E-01  3.904100000000E-02
  85  14     5.562290000000E-01  8.244370000000E-01  1.608970000000E-01
  86  14     8.709870000000E-01  6.234880000000E-01  1.588510000000E-01
  87  14     6.990480000000E-01  6.978350000000E-01  2.139590000000E-01
  88  14     9.345920000000E-01  9.388790000000E-01  2.102810000000E-01
  89  14     6.018400000000E-02  6.925800000000E-02  2.729580000000E-01
  90  14     3.092570000000E-01  3.187880000000E-01  2.788890000000E-01
  91  14     6.069900000000E-02  5.674300000000E-01  2.781850000000E-01
  92  14     3.043210000000E-01  8.178220000000E-01  2.837580000000E-01
  93  14     5.635450000000E-01  7.267500000000E-02  2.799770000000E-01
  94  14     8.050140000000E-01  3.183170000000E-01  2.772250000000E-01
  95  14     5.675870000000E-01  5.705250000000E-01  2.743450000000E-01
  96  14     8.143970000000E-01  8.221770000000E-01  2.801070000000E-01
  97  14     2.737900000000E-01  6.382730000000E-01  9.894540000000E-01
  98  14     1.004186000000E+00  2.675900000000E-01  1.005312000000E+00
  99  14     1.779260000000E-01  4.411930000000E-01  3.420940000000E-01
 100  14     4.320680000000E-01  1.946420000000E-01  3.416230000000E-01
 101  14     4.283200000000E-02  3.180840000000E-01  4.041410000000E-01
 102  14     3.018320000000E-01  6.973700000000E-02  4.021730000000E-01
 103  14     1.633720000000E-01  1.862590000000E-01  4.622440000000E-01
 104  14     4.197080000000E-01  4.502960000000E-01  4.667410000000E-01
 105  14     1.731590000000E-01  9.429650000000E-01  3.426560000000E-01
 106  14     4.370160000000E-01  6.887270000000E-01  3.387270000000E-01
 107  14     5.350700000000E-02  8.140510000000E-01  4.089020000000E-01
 108  14     3.067380000000E-01  5.691030000000E-01  4.000140000000E-01
 109  14     1.916000000000E-01  6.933350000000E-01  4.672010000000E-01
 110  14     4.351130000000E-01  9.548570000000E-01  4.628670000000E-01
 111  14     6.835470000000E-01  4.465900000000E-01  3.427620000000E-01
 112  14     9.309550000000E-01  1.902310000000E-01  3.373080000000E-01
 113  14     5.504910000000E-01  3.268860000000E-01  4.050310000000E-01
 114  14     8.181750000000E-01  5.823400000000E-02  4.038910000000E-01
 115  14     6.734360000000E-01  1.779980000000E-01  4.536660000000E-01
 116  14     9.271310000000E-01  4.503490000000E-01  4.751960000000E-01
 117  14     6.845530000000E-01  9.423760000000E-01  3.425240000000E-01
 118  14     9.358500000000E-01  6.916080000000E-01  3.422900000000E-01
 119  14     5.543410000000E-01  8.168540000000E-01  4.040960000000E-01
 120  14     8.071650000000E-01  5.756010000000E-01  4.083750000000E-01
 121  14     6.716290000000E-01  6.943660000000E-01  4.716640000000E-01
 122  14     9.228450000000E-01  9.282900000000E-01  4.750680000000E-01
 123  14     5.734800000000E-02  5.241700000000E-02  5.309290000000E-01
 124  14     2.741320000000E-01  3.300480000000E-01  5.170470000000E-01
 125  14     9.016600000000E-02  5.511710000000E-01  5.337740000000E-01
 126  14     2.873890000000E-01  8.541520000000E-01  5.271590000000E-01
 127  14     6.951790000000E-01  1.061950000000E-01  5.896370000000E-01
 128  14     7.659360000000E-01  3.761810000000E-01  5.421210000000E-01
 129  14     5.410910000000E-01  5.702610000000E-01  5.339060000000E-01
 130  14     7.569810000000E-01  8.451370000000E-01  5.382020000000E-01
 131  14     3.584220000000E-01  2.141050000000E-01  6.386800000000E-01
 132  14     6.057300000000E-01  4.018780000000E-01  6.452000000000E-01
 133  14     5.173740000000E-01  7.235510000000E-01  6.377060000000E-01
 134  14     7.858550000000E-01  8.637480000000E-01  6.786800000000E-01
 135  14     2.593330000000E-01  1.438470000000E-01  9.152870000000E-01
 136  14     8.169430000000E-01  5.039990000000E-01  9.860810000000E-01
 137  14     3.315830000000E-01  9.487210000000E-01  8.158780000000E-01
 138  14     7.382250000000E-01  7.324700000000E-02  7.504110000000E-01
 139  14     9.687720000000E-01  7.156500000000E-02  6.628930000000E-01
 140  14     1.340980000000E-01  5.756060000000E-01  8.679360000000E-01
 141  14     1.158300000000E-01  6.499860000000E-01  6.689080000000E-01
 142  14     8.937720000000E-01  7.633770000000E-01  7.548360000000E-01
 143  14     5.161420000000E-01  7.357810000000E-01  8.272910000000E-01
 144  14     8.049940000000E-01  1.427460000000E-01  8.908250000000E-01
 145  14     4.153080000000E-01  3.835330000000E-01  9.649400000000E-01
 146  14     1.232650000000E-01  3.496480000000E-01  8.408230000000E-01
 147  14     7.886100000000E-02  8.367290000000E-01  8.276180000000E-01
 148  14     5.537020000000E-01  1.109760000000E-01  9.748630000000E-01
 149  14     5.913590000000E-01  3.263180000000E-01  7.701760000000E-01
 150  14     8.890410000000E-01  4.867590000000E-01  7.138510000000E-01
 151  14     3.022810000000E-01  9.194800000000E-01  6.764850000000E-01
 152  14     2.721400000000E-02  9.783010000000E-01  9.464090000000E-01
 153  14     1.349260000000E-01  3.683530000000E-01  7.038210000000E-01
 154  14     5.060830000000E-01  8.282120000000E-01  9.625060000000E-01
 155  14     3.935960000000E-01  4.832820000000E-01  8.297530000000E-01
 156  14     8.004640000000E-01  4.150860000000E-01  8.508270000000E-01

 *******************************************************************************

 << INFORMATION >>: FROM NOW ON, ALL COORDINATES REFER TO THE PRIMITIVE CELL

 *******************************************************************************

 LATTICE PARAMETERS  (ANGSTROMS AND DEGREES) - PRIMITIVE CELL
       A          B          C         ALPHA     BETA     GAMMA        VOLUME
   10.85580   10.63740   21.98810    90.00000  90.00000  90.00000   2539.130530

 COORDINATES OF THE EQUIVALENT ATOMS (FRACTIONAL UNITS)

 N. ATOM EQUIV AT. N.          X                  Y                  Z

   1   1   1    8 O     7.11660000000E-02  6.11370000000E-02  8.75040000000E-02

   2   2   1    8 O     1.49098000000E-01 -3.49489000000E-01  3.36350000000E-02

   3   3   1    8 O    -4.20228000000E-01  7.44760000000E-02  5.11570000000E-02

   4   4   1    8 O    -4.19424000000E-01 -4.24054000000E-01  8.29820000000E-02

   5   5   1    8 O    -4.53060000000E-01  3.82728000000E-01  4.78000000000E-04

   6   6   1    8 O    -1.02703000000E-01 -3.66570000000E-01  5.11800000000E-03

   7   7   1    8 O    -3.86585000000E-01 -1.58913000000E-01  1.77470000000E-02

   8   8   1    8 O     1.80909000000E-01  4.31668000000E-01 -4.47795000000E-01

   9   9   1    8 O     1.69512000000E-01 -5.15250000000E-02 -4.53048000000E-01

  10  10   1    8 O    -3.69846000000E-01  4.31835000000E-01 -4.73123000000E-01

  11  11   1    8 O    -3.16851000000E-01 -1.55990000000E-02 -4.55758000000E-01

  12  12   1    8 O     4.96503000000E-01  2.90283000000E-01 -3.51204000000E-01

  13  13   1    8 O    -2.47802000000E-01  3.86499000000E-01 -3.82698000000E-01

  14  14   1    8 O    -4.52272000000E-01 -4.63551000000E-01 -3.81947000000E-01

  15  15   1    8 O     4.72605000000E-01 -2.90685000000E-01 -4.34921000000E-01

  16  16   1    8 O     3.42095000000E-01  2.40212000000E-01 -4.33197000000E-01

  17  17   1    8 O    -2.64972000000E-01  2.17280000000E-01 -4.71820000000E-01

  18  18   1    8 O    -1.95520000000E-02  1.21874000000E-01 -4.12350000000E-01

  19  19   1    8 O     6.12490000000E-02 -3.77809000000E-01 -4.00130000000E-01

  20  20   1    8 O    -9.70290000000E-02 -6.52980000000E-02 -3.55522000000E-01

  21  21   1    8 O    -2.66670000000E-01 -2.07726000000E-01 -3.88098000000E-01

  22  22   1    8 O     3.50727000000E-01  5.94420000000E-02 -3.55557000000E-01

  23  23   1    8 O     2.24046000000E-01 -1.41822000000E-01 -1.57815000000E-01

  24  24   1    8 O     2.51706000000E-01  2.91189000000E-01 -3.23321000000E-01

  25  25   1    8 O     1.66015000000E-01  2.53064000000E-01 -1.09275000000E-01

  26  26   1    8 O     1.80558000000E-01 -4.80295000000E-01 -3.02835000000E-01

  27  27   1    8 O    -9.70430000000E-02  3.79132000000E-01 -5.14800000000E-03

  28  28   1    8 O     3.24006000000E-01  8.04240000000E-02 -1.44096000000E-01

  29  29   1    8 O    -3.84138000000E-01  1.76314000000E-01 -2.45720000000E-01

  30  30   1    8 O     2.02158000000E-01 -3.67319000000E-01 -7.53610000000E-02

  31  31   1    8 O    -2.24414000000E-01  6.89220000000E-02 -1.73387000000E-01

  32  32   1    8 O     4.33256000000E-01  4.32407000000E-01 -1.04140000000E-01

  33  33   1    8 O     2.33725000000E-01  4.69965000000E-01 -1.68891000000E-01

  34  34   1    8 O     1.69190000000E-02 -1.38520000000E-01 -2.38507000000E-01

  35  35   1    8 O     7.43900000000E-03 -1.34984000000E-01 -2.92800000000E-03

  36  36   1    8 O     1.01524000000E-01  7.87790000000E-02 -3.10407000000E-01

  37  37   1    8 O    -1.33685000000E-01  4.65638000000E-01 -2.12755000000E-01

  38  38   1    8 O     3.93041000000E-01 -3.66159000000E-01 -1.73003000000E-01

  39  39   1    8 O    -1.68623000000E-01 -2.62063000000E-01 -1.83307000000E-01

  40  40   1    8 O     4.85802000000E-01 -1.88660000000E-02 -5.22600000000E-02

  41  41   1    8 O     4.63833000000E-01 -1.17554000000E-01 -1.79259000000E-01

  42  42   1    8 O    -4.52047000000E-01 -2.55521000000E-01 -9.57160000000E-02

  43  43   1    8 O    -8.53060000000E-02  8.85930000000E-02 -5.84390000000E-02

  44  44   1    8 O    -3.20699000000E-01  1.52408000000E-01 -6.48530000000E-02

  45  45   1    8 O    -2.36920000000E-02 -3.62638000000E-01 -2.88783000000E-01

  46  46   1    8 O     1.12990000000E-02 -8.30480000000E-02 -1.19988000000E-01

  47  47   1    8 O     1.68078000000E-01  4.54880000000E-02 -4.65010000000E-02

  48  48   1    8 O     3.32472000000E-01  4.95268000000E-01 -1.01500000000E-03

  49  49   1    8 O     3.76490000000E-02  4.56871000000E-01 -1.25383000000E-01

  50  50   1    8 O     1.10041000000E-01  3.04983000000E-01 -2.27505000000E-01

  51  51   1    8 O    -1.33227000000E-01  2.79373000000E-01 -1.28872000000E-01

  52  52   1    8 O    -1.45252000000E-01  1.33506000000E-01 -2.91338000000E-01

  53  53   1    8 O     2.96156000000E-01 -3.13860000000E-02 -2.54224000000E-01

  54  54   1    8 O     4.47680000000E-01  3.82339000000E-01 -2.19892000000E-01

  55  55   1    8 O     4.30513000000E-01 -1.64223000000E-01 -3.34998000000E-01

  56  56   1    8 O    -1.26610000000E-02  3.82943000000E-01 -3.16618000000E-01

  57  57   1    8 O    -3.37602000000E-01  3.66811000000E-01 -1.67998000000E-01

  58  58   1    8 O     1.99553000000E-01 -2.20002000000E-01 -3.28922000000E-01

  59  59   1    8 O    -4.03219000000E-01 -3.14289000000E-01 -2.26452000000E-01

  60  60   1    8 O    -2.13522000000E-01 -4.95127000000E-01 -8.85080000000E-02

  61  61   1    8 O     7.17060000000E-02 -3.18102000000E-01 -1.70339000000E-01

  62  62   1    8 O    -3.50082000000E-01  4.12356000000E-01 -2.84314000000E-01

  63  63   1    8 O     3.71600000000E-01 -2.40528000000E-01 -1.26890000000E-02

  64  64   1    8 O     3.63658000000E-01  2.33326000000E-01 -4.85830000000E-02

  65  65   1   14 SI    1.19182000000E-01 -4.83532000000E-01  1.11854000000E-01

  66  66   1   14 SI    4.34187000000E-01  1.89344000000E-01  8.56480000000E-02

  67  67   1   14 SI    5.51290000000E-02  3.21774000000E-01  1.53169000000E-01

  68  68   1   14 SI    3.22801000000E-01  6.79950000000E-02  1.57389000000E-01

  69  69   1   14 SI    1.88690000000E-01  1.99408000000E-01  2.12854000000E-01

  70  70   1   14 SI    4.43663000000E-01  4.34893000000E-01  2.14448000000E-01

  71  71   1   14 SI    1.67929000000E-01 -5.03320000000E-02  1.07286000000E-01

  72  72   1   14 SI    4.65575000000E-01 -3.34298000000E-01  1.06284000000E-01

  73  73   1   14 SI    3.28640000000E-02 -2.21274000000E-01  1.47782000000E-01

  74  74   1   14 SI    3.10153000000E-01 -4.39541000000E-01  1.57094000000E-01

  75  75   1   14 SI    1.87398000000E-01 -3.03899000000E-01  2.15974000000E-01

  76  76   1   14 SI    4.31481000000E-01 -5.64750000000E-02  2.24616000000E-01

  77  77   1   14 SI   -3.60372000000E-01  4.44063000000E-01  5.52320000000E-02

  78  78   1   14 SI   -4.61220000000E-02  1.63846000000E-01  9.69180000000E-02

  79  79   1   14 SI   -4.32185000000E-01  3.12205000000E-01  1.45730000000E-01

  80  80   1   14 SI   -2.00630000000E-01  4.69490000000E-02  1.44282000000E-01

  81  81   1   14 SI   -3.12113000000E-01  1.88183000000E-01  2.10493000000E-01

  82  82   1   14 SI   -7.03800000000E-02  4.48862000000E-01  2.15988000000E-01

  83  83   1   14 SI   -3.59566000000E-01 -6.41170000000E-02  7.93700000000E-02

  84  84   1   14 SI    4.04000000000E-04 -2.70631000000E-01  3.90410000000E-02

  85  85   1   14 SI   -4.43771000000E-01 -1.75563000000E-01  1.60897000000E-01

  86  86   1   14 SI   -1.29013000000E-01 -3.76512000000E-01  1.58851000000E-01

  87  87   1   14 SI   -3.00952000000E-01 -3.02165000000E-01  2.13959000000E-01

  88  88   1   14 SI   -6.54080000000E-02 -6.11210000000E-02  2.10281000000E-01

  89  89   1   14 SI    6.01840000000E-02  6.92580000000E-02  2.72958000000E-01

  90  90   1   14 SI    3.09257000000E-01  3.18788000000E-01  2.78889000000E-01

  91  91   1   14 SI    6.06990000000E-02 -4.32570000000E-01  2.78185000000E-01

  92  92   1   14 SI    3.04321000000E-01 -1.82178000000E-01  2.83758000000E-01

  93  93   1   14 SI   -4.36455000000E-01  7.26750000000E-02  2.79977000000E-01

  94  94   1   14 SI   -1.94986000000E-01  3.18317000000E-01  2.77225000000E-01

  95  95   1   14 SI   -4.32413000000E-01 -4.29475000000E-01  2.74345000000E-01

  96  96   1   14 SI   -1.85603000000E-01 -1.77823000000E-01  2.80107000000E-01

  97  97   1   14 SI    2.73790000000E-01 -3.61727000000E-01 -1.05460000000E-02

  98  98   1   14 SI    4.18600000000E-03  2.67590000000E-01  5.31200000000E-03

  99  99   1   14 SI    1.77926000000E-01  4.41193000000E-01  3.42094000000E-01

 100 100   1   14 SI    4.32068000000E-01  1.94642000000E-01  3.41623000000E-01

 101 101   1   14 SI    4.28320000000E-02  3.18084000000E-01  4.04141000000E-01

 102 102   1   14 SI    3.01832000000E-01  6.97370000000E-02  4.02173000000E-01

 103 103   1   14 SI    1.63372000000E-01  1.86259000000E-01  4.62244000000E-01

 104 104   1   14 SI    4.19708000000E-01  4.50296000000E-01  4.66741000000E-01

 105 105   1   14 SI    1.73159000000E-01 -5.70350000000E-02  3.42656000000E-01

 106 106   1   14 SI    4.37016000000E-01 -3.11273000000E-01  3.38727000000E-01

 107 107   1   14 SI    5.35070000000E-02 -1.85949000000E-01  4.08902000000E-01

 108 108   1   14 SI    3.06738000000E-01 -4.30897000000E-01  4.00014000000E-01

 109 109   1   14 SI    1.91600000000E-01 -3.06665000000E-01  4.67201000000E-01

 110 110   1   14 SI    4.35113000000E-01 -4.51430000000E-02  4.62867000000E-01

 111 111   1   14 SI   -3.16453000000E-01  4.46590000000E-01  3.42762000000E-01

 112 112   1   14 SI   -6.90450000000E-02  1.90231000000E-01  3.37308000000E-01

 113 113   1   14 SI   -4.49509000000E-01  3.26886000000E-01  4.05031000000E-01

 114 114   1   14 SI   -1.81825000000E-01  5.82340000000E-02  4.03891000000E-01

 115 115   1   14 SI   -3.26564000000E-01  1.77998000000E-01  4.53666000000E-01

 116 116   1   14 SI   -7.28690000000E-02  4.50349000000E-01  4.75196000000E-01

 117 117   1   14 SI   -3.15447000000E-01 -5.76240000000E-02  3.42524000000E-01

 118 118   1   14 SI   -6.41500000000E-02 -3.08392000000E-01  3.42290000000E-01

 119 119   1   14 SI   -4.45659000000E-01 -1.83146000000E-01  4.04096000000E-01

 120 120   1   14 SI   -1.92835000000E-01 -4.24399000000E-01  4.08375000000E-01

 121 121   1   14 SI   -3.28371000000E-01 -3.05634000000E-01  4.71664000000E-01

 122 122   1   14 SI   -7.71550000000E-02 -7.17100000000E-02  4.75068000000E-01

 123 123   1   14 SI    5.73480000000E-02  5.24170000000E-02 -4.69071000000E-01

 124 124   1   14 SI    2.74132000000E-01  3.30048000000E-01 -4.82953000000E-01

 125 125   1   14 SI    9.01660000000E-02 -4.48829000000E-01 -4.66226000000E-01

 126 126   1   14 SI    2.87389000000E-01 -1.45848000000E-01 -4.72841000000E-01

 127 127   1   14 SI   -3.04821000000E-01  1.06195000000E-01 -4.10363000000E-01

 128 128   1   14 SI   -2.34064000000E-01  3.76181000000E-01 -4.57879000000E-01

 129 129   1   14 SI   -4.58909000000E-01 -4.29739000000E-01 -4.66094000000E-01

 130 130   1   14 SI   -2.43019000000E-01 -1.54863000000E-01 -4.61798000000E-01

 131 131   1   14 SI    3.58422000000E-01  2.14105000000E-01 -3.61320000000E-01

 132 132   1   14 SI   -3.94270000000E-01  4.01878000000E-01 -3.54800000000E-01

 133 133   1   14 SI   -4.82626000000E-01 -2.76449000000E-01 -3.62294000000E-01

 134 134   1   14 SI   -2.14145000000E-01 -1.36252000000E-01 -3.21320000000E-01

 135 135   1   14 SI    2.59333000000E-01  1.43847000000E-01 -8.47130000000E-02

 136 136   1   14 SI   -1.83057000000E-01 -4.96001000000E-01 -1.39190000000E-02

 137 137   1   14 SI    3.31583000000E-01 -5.12790000000E-02 -1.84122000000E-01

 138 138   1   14 SI   -2.61775000000E-01  7.32470000000E-02 -2.49589000000E-01

 139 139   1   14 SI   -3.12280000000E-02  7.15650000000E-02 -3.37107000000E-01

 140 140   1   14 SI    1.34098000000E-01 -4.24394000000E-01 -1.32064000000E-01

 141 141   1   14 SI    1.15830000000E-01 -3.50014000000E-01 -3.31092000000E-01

 142 142   1   14 SI   -1.06228000000E-01 -2.36623000000E-01 -2.45164000000E-01

 143 143   1   14 SI   -4.83858000000E-01 -2.64219000000E-01 -1.72709000000E-01

 144 144   1   14 SI   -1.95006000000E-01  1.42746000000E-01 -1.09175000000E-01

 145 145   1   14 SI    4.15308000000E-01  3.83533000000E-01 -3.50600000000E-02

 146 146   1   14 SI    1.23265000000E-01  3.49648000000E-01 -1.59177000000E-01

 147 147   1   14 SI    7.88610000000E-02 -1.63271000000E-01 -1.72382000000E-01

 148 148   1   14 SI   -4.46298000000E-01  1.10976000000E-01 -2.51370000000E-02

 149 149   1   14 SI   -4.08641000000E-01  3.26318000000E-01 -2.29824000000E-01

 150 150   1   14 SI   -1.10959000000E-01  4.86759000000E-01 -2.86149000000E-01

 151 151   1   14 SI    3.02281000000E-01 -8.05200000000E-02 -3.23515000000E-01

 152 152   1   14 SI    2.72140000000E-02 -2.16990000000E-02 -5.35910000000E-02

 153 153   1   14 SI    1.34926000000E-01  3.68353000000E-01 -2.96179000000E-01

 154 154   1   14 SI   -4.93917000000E-01 -1.71788000000E-01 -3.74940000000E-02

 155 155   1   14 SI    3.93596000000E-01  4.83282000000E-01 -1.70247000000E-01

 156 156   1   14 SI   -1.99536000000E-01  4.15086000000E-01 -1.49173000000E-01

 NUMBER OF SYMMETRY OPERATORS         :    1
 *******************************************************************************
 * GEOMETRY EDITING - INPUT COORDINATES ARE GIVEN IN ANGSTROM         
 *******************************************************************************

 GCALCO - MAX INDICES DIRECT LATTICE VECTOR    18    19     9
 NO.OF VECTORS CREATED 6999 STARS 1061 RMAX   305.16670 BOHR

 GEOMETRY FOR WAVE FUNCTION - DIMENSIONALITY OF THE SYSTEM    3
 (NON PERIODIC DIRECTION: LATTICE PARAMETER FORMALLY SET TO 500)
 *******************************************************************************
 LATTICE PARAMETERS (ANGSTROMS AND DEGREES) - BOHR = 0.5291772083 ANGSTROM
 PRIMITIVE CELL - CENTRING CODE 1/0 VOLUME=  2539.130530 - DENSITY  2.353 g/cm^3
         A              B              C           ALPHA      BETA       GAMMA 
    10.85580000    10.63740000    21.98810000    90.000000  90.000000  90.000000
 *******************************************************************************
 ATOMS IN THE ASYMMETRIC UNIT  156 - ATOMS IN THE UNIT CELL:  156
     ATOM              X/A                 Y/B                 Z/C    
 *******************************************************************************
   1 T   8 O     7.116600000000E-02  6.113700000000E-02  8.750400000000E-02
   2 T   8 O     1.490980000000E-01 -3.494890000000E-01  3.363500000000E-02
   3 T   8 O    -4.202280000000E-01  7.447600000000E-02  5.115700000000E-02
   4 T   8 O    -4.194240000000E-01 -4.240540000000E-01  8.298200000000E-02
   5 T   8 O    -4.530600000000E-01  3.827280000000E-01  4.780000000000E-04
   6 T   8 O    -1.027030000000E-01 -3.665700000000E-01  5.118000000000E-03
   7 T   8 O    -3.865850000000E-01 -1.589130000000E-01  1.774700000000E-02
   8 T   8 O     1.809090000000E-01  4.316680000000E-01 -4.477950000000E-01
   9 T   8 O     1.695120000000E-01 -5.152500000000E-02 -4.530480000000E-01
  10 T   8 O    -3.698460000000E-01  4.318350000000E-01 -4.731230000000E-01
  11 T   8 O    -3.168510000000E-01 -1.559900000000E-02 -4.557580000000E-01
  12 T   8 O     4.965030000000E-01  2.902830000000E-01 -3.512040000000E-01
  13 T   8 O    -2.478020000000E-01  3.864990000000E-01 -3.826980000000E-01
  14 T   8 O    -4.522720000000E-01 -4.635510000000E-01 -3.819470000000E-01
  15 T   8 O     4.726050000000E-01 -2.906850000000E-01 -4.349210000000E-01
  16 T   8 O     3.420950000000E-01  2.402120000000E-01 -4.331970000000E-01
  17 T   8 O    -2.649720000000E-01  2.172800000000E-01 -4.718200000000E-01
  18 T   8 O    -1.955200000000E-02  1.218740000000E-01 -4.123500000000E-01
  19 T   8 O     6.124900000000E-02 -3.778090000000E-01 -4.001300000000E-01
  20 T   8 O    -9.702900000000E-02 -6.529800000000E-02 -3.555220000000E-01
  21 T   8 O    -2.666700000000E-01 -2.077260000000E-01 -3.880980000000E-01
  22 T   8 O     3.507270000000E-01  5.944200000000E-02 -3.555570000000E-01
  23 T   8 O     2.240460000000E-01 -1.418220000000E-01 -1.578150000000E-01
  24 T   8 O     2.517060000000E-01  2.911890000000E-01 -3.233210000000E-01
  25 T   8 O     1.660150000000E-01  2.530640000000E-01 -1.092750000000E-01
  26 T   8 O     1.805580000000E-01 -4.802950000000E-01 -3.028350000000E-01
  27 T   8 O    -9.704300000000E-02  3.791320000000E-01 -5.148000000000E-03
  28 T   8 O     3.240060000000E-01  8.042400000000E-02 -1.440960000000E-01
  29 T   8 O    -3.841380000000E-01  1.763140000000E-01 -2.457200000000E-01
  30 T   8 O     2.021580000000E-01 -3.673190000000E-01 -7.536100000000E-02
  31 T   8 O    -2.244140000000E-01  6.892200000000E-02 -1.733870000000E-01
  32 T   8 O     4.332560000000E-01  4.324070000000E-01 -1.041400000000E-01
  33 T   8 O     2.337250000000E-01  4.699650000000E-01 -1.688910000000E-01
  34 T   8 O     1.691900000000E-02 -1.385200000000E-01 -2.385070000000E-01
  35 T   8 O     7.439000000000E-03 -1.349840000000E-01 -2.928000000000E-03
  36 T   8 O     1.015240000000E-01  7.877900000000E-02 -3.104070000000E-01
  37 T   8 O    -1.336850000000E-01  4.656380000000E-01 -2.127550000000E-01
  38 T   8 O     3.930410000000E-01 -3.661590000000E-01 -1.730030000000E-01
  39 T   8 O    -1.686230000000E-01 -2.620630000000E-01 -1.833070000000E-01
  40 T   8 O     4.858020000000E-01 -1.886600000000E-02 -5.226000000000E-02
  41 T   8 O     4.638330000000E-01 -1.175540000000E-01 -1.792590000000E-01
  42 T   8 O    -4.520470000000E-01 -2.555210000000E-01 -9.571600000000E-02
  43 T   8 O    -8.530600000000E-02  8.859300000000E-02 -5.843900000000E-02
  44 T   8 O    -3.206990000000E-01  1.524080000000E-01 -6.485300000000E-02
  45 T   8 O    -2.369200000000E-02 -3.626380000000E-01 -2.887830000000E-01
  46 T   8 O     1.129900000000E-02 -8.304800000000E-02 -1.199880000000E-01
  47 T   8 O     1.680780000000E-01  4.548800000000E-02 -4.650100000000E-02
  48 T   8 O     3.324720000000E-01  4.952680000000E-01 -1.015000000000E-03
  49 T   8 O     3.764900000000E-02  4.568710000000E-01 -1.253830000000E-01
  50 T   8 O     1.100410000000E-01  3.049830000000E-01 -2.275050000000E-01
  51 T   8 O    -1.332270000000E-01  2.793730000000E-01 -1.288720000000E-01
  52 T   8 O    -1.452520000000E-01  1.335060000000E-01 -2.913380000000E-01
  53 T   8 O     2.961560000000E-01 -3.138600000000E-02 -2.542240000000E-01
  54 T   8 O     4.476800000000E-01  3.823390000000E-01 -2.198920000000E-01
  55 T   8 O     4.305130000000E-01 -1.642230000000E-01 -3.349980000000E-01
  56 T   8 O    -1.266100000000E-02  3.829430000000E-01 -3.166180000000E-01
  57 T   8 O    -3.376020000000E-01  3.668110000000E-01 -1.679980000000E-01
  58 T   8 O     1.995530000000E-01 -2.200020000000E-01 -3.289220000000E-01
  59 T   8 O    -4.032190000000E-01 -3.142890000000E-01 -2.264520000000E-01
  60 T   8 O    -2.135220000000E-01 -4.951270000000E-01 -8.850800000000E-02
  61 T   8 O     7.170600000000E-02 -3.181020000000E-01 -1.703390000000E-01
  62 T   8 O    -3.500820000000E-01  4.123560000000E-01 -2.843140000000E-01
  63 T   8 O     3.716000000000E-01 -2.405280000000E-01 -1.268900000000E-02
  64 T   8 O     3.636580000000E-01  2.333260000000E-01 -4.858300000000E-02
  65 T  14 SI    1.191820000000E-01 -4.835320000000E-01  1.118540000000E-01
  66 T  14 SI    4.341870000000E-01  1.893440000000E-01  8.564800000000E-02
  67 T  14 SI    5.512900000000E-02  3.217740000000E-01  1.531690000000E-01
  68 T  14 SI    3.228010000000E-01  6.799500000000E-02  1.573890000000E-01
  69 T  14 SI    1.886900000000E-01  1.994080000000E-01  2.128540000000E-01
  70 T  14 SI    4.436630000000E-01  4.348930000000E-01  2.144480000000E-01
  71 T  14 SI    1.679290000000E-01 -5.033200000000E-02  1.072860000000E-01
  72 T  14 SI    4.655750000000E-01 -3.342980000000E-01  1.062840000000E-01
  73 T  14 SI    3.286400000000E-02 -2.212740000000E-01  1.477820000000E-01
  74 T  14 SI    3.101530000000E-01 -4.395410000000E-01  1.570940000000E-01
  75 T  14 SI    1.873980000000E-01 -3.038990000000E-01  2.159740000000E-01
  76 T  14 SI    4.314810000000E-01 -5.647500000000E-02  2.246160000000E-01
  77 T  14 SI   -3.603720000000E-01  4.440630000000E-01  5.523200000000E-02
  78 T  14 SI   -4.612200000000E-02  1.638460000000E-01  9.691800000000E-02
  79 T  14 SI   -4.321850000000E-01  3.122050000000E-01  1.457300000000E-01
  80 T  14 SI   -2.006300000000E-01  4.694900000000E-02  1.442820000000E-01
  81 T  14 SI   -3.121130000000E-01  1.881830000000E-01  2.104930000000E-01
  82 T  14 SI   -7.038000000000E-02  4.488620000000E-01  2.159880000000E-01
  83 T  14 SI   -3.595660000000E-01 -6.411700000000E-02  7.937000000000E-02
  84 T  14 SI    4.040000000001E-04 -2.706310000000E-01  3.904100000000E-02
  85 T  14 SI   -4.437710000000E-01 -1.755630000000E-01  1.608970000000E-01
  86 T  14 SI   -1.290130000000E-01 -3.765120000000E-01  1.588510000000E-01
  87 T  14 SI   -3.009520000000E-01 -3.021650000000E-01  2.139590000000E-01
  88 T  14 SI   -6.540800000000E-02 -6.112100000000E-02  2.102810000000E-01
  89 T  14 SI    6.018400000000E-02  6.925800000000E-02  2.729580000000E-01
  90 T  14 SI    3.092570000000E-01  3.187880000000E-01  2.788890000000E-01
  91 T  14 SI    6.069900000000E-02 -4.325700000000E-01  2.781850000000E-01
  92 T  14 SI    3.043210000000E-01 -1.821780000000E-01  2.837580000000E-01
  93 T  14 SI   -4.364550000000E-01  7.267500000000E-02  2.799770000000E-01
  94 T  14 SI   -1.949860000000E-01  3.183170000000E-01  2.772250000000E-01
  95 T  14 SI   -4.324130000000E-01 -4.294750000000E-01  2.743450000000E-01
  96 T  14 SI   -1.856030000000E-01 -1.778230000000E-01  2.801070000000E-01
  97 T  14 SI    2.737900000000E-01 -3.617270000000E-01 -1.054600000000E-02
  98 T  14 SI    4.186000000000E-03  2.675900000000E-01  5.312000000000E-03
  99 T  14 SI    1.779260000000E-01  4.411930000000E-01  3.420940000000E-01
 100 T  14 SI    4.320680000000E-01  1.946420000000E-01  3.416230000000E-01
 101 T  14 SI    4.283200000000E-02  3.180840000000E-01  4.041410000000E-01
 102 T  14 SI    3.018320000000E-01  6.973700000000E-02  4.021730000000E-01
 103 T  14 SI    1.633720000000E-01  1.862590000000E-01  4.622440000000E-01
 104 T  14 SI    4.197080000000E-01  4.502960000000E-01  4.667410000000E-01
 105 T  14 SI    1.731590000000E-01 -5.703500000000E-02  3.426560000000E-01
 106 T  14 SI    4.370160000000E-01 -3.112730000000E-01  3.387270000000E-01
 107 T  14 SI    5.350700000000E-02 -1.859490000000E-01  4.089020000000E-01
 108 T  14 SI    3.067380000000E-01 -4.308970000000E-01  4.000140000000E-01
 109 T  14 SI    1.916000000000E-01 -3.066650000000E-01  4.672010000000E-01
 110 T  14 SI    4.351130000000E-01 -4.514300000000E-02  4.628670000000E-01
 111 T  14 SI   -3.164530000000E-01  4.465900000000E-01  3.427620000000E-01
 112 T  14 SI   -6.904500000000E-02  1.902310000000E-01  3.373080000000E-01
 113 T  14 SI   -4.495090000000E-01  3.268860000000E-01  4.050310000000E-01
 114 T  14 SI   -1.818250000000E-01  5.823400000000E-02  4.038910000000E-01
 115 T  14 SI   -3.265640000000E-01  1.779980000000E-01  4.536660000000E-01
 116 T  14 SI   -7.286900000000E-02  4.503490000000E-01  4.751960000000E-01
 117 T  14 SI   -3.154470000000E-01 -5.762400000000E-02  3.425240000000E-01
 118 T  14 SI   -6.415000000000E-02 -3.083920000000E-01  3.422900000000E-01
 119 T  14 SI   -4.456590000000E-01 -1.831460000000E-01  4.040960000000E-01
 120 T  14 SI   -1.928350000000E-01 -4.243990000000E-01  4.083750000000E-01
 121 T  14 SI   -3.283710000000E-01 -3.056340000000E-01  4.716640000000E-01
 122 T  14 SI   -7.715500000000E-02 -7.171000000000E-02  4.750680000000E-01
 123 T  14 SI    5.734800000000E-02  5.241700000000E-02 -4.690710000000E-01
 124 T  14 SI    2.741320000000E-01  3.300480000000E-01 -4.829530000000E-01
 125 T  14 SI    9.016600000000E-02 -4.488290000000E-01 -4.662260000000E-01
 126 T  14 SI    2.873890000000E-01 -1.458480000000E-01 -4.728410000000E-01
 127 T  14 SI   -3.048210000000E-01  1.061950000000E-01 -4.103630000000E-01
 128 T  14 SI   -2.340640000000E-01  3.761810000000E-01 -4.578790000000E-01
 129 T  14 SI   -4.589090000000E-01 -4.297390000000E-01 -4.660940000000E-01
 130 T  14 SI   -2.430190000000E-01 -1.548630000000E-01 -4.617980000000E-01
 131 T  14 SI    3.584220000000E-01  2.141050000000E-01 -3.613200000000E-01
 132 T  14 SI   -3.942700000000E-01  4.018780000000E-01 -3.548000000000E-01
 133 T  14 SI   -4.826260000000E-01 -2.764490000000E-01 -3.622940000000E-01
 134 T  14 SI   -2.141450000000E-01 -1.362520000000E-01 -3.213200000000E-01
 135 T  14 SI    2.593330000000E-01  1.438470000000E-01 -8.471300000000E-02
 136 T  14 SI   -1.830570000000E-01 -4.960010000000E-01 -1.391900000000E-02
 137 T  14 SI    3.315830000000E-01 -5.127900000000E-02 -1.841220000000E-01
 138 T  14 SI   -2.617750000000E-01  7.324700000000E-02 -2.495890000000E-01
 139 T  14 SI   -3.122800000000E-02  7.156500000000E-02 -3.371070000000E-01
 140 T  14 SI    1.340980000000E-01 -4.243940000000E-01 -1.320640000000E-01
 141 T  14 SI    1.158300000000E-01 -3.500140000000E-01 -3.310920000000E-01
 142 T  14 SI   -1.062280000000E-01 -2.366230000000E-01 -2.451640000000E-01
 143 T  14 SI   -4.838580000000E-01 -2.642190000000E-01 -1.727090000000E-01
 144 T  14 SI   -1.950060000000E-01  1.427460000000E-01 -1.091750000000E-01
 145 T  14 SI    4.153080000000E-01  3.835330000000E-01 -3.506000000000E-02
 146 T  14 SI    1.232650000000E-01  3.496480000000E-01 -1.591770000000E-01
 147 T  14 SI    7.886100000000E-02 -1.632710000000E-01 -1.723820000000E-01
 148 T  14 SI   -4.462980000000E-01  1.109760000000E-01 -2.513700000000E-02
 149 T  14 SI   -4.086410000000E-01  3.263180000000E-01 -2.298240000000E-01
 150 T  14 SI   -1.109590000000E-01  4.867590000000E-01 -2.861490000000E-01
 151 T  14 SI    3.022810000000E-01 -8.052000000000E-02 -3.235150000000E-01
 152 T  14 SI    2.721400000000E-02 -2.169900000000E-02 -5.359100000000E-02
 153 T  14 SI    1.349260000000E-01  3.683530000000E-01 -2.961790000000E-01
 154 T  14 SI   -4.939170000000E-01 -1.717880000000E-01 -3.749400000000E-02
 155 T  14 SI    3.935960000000E-01  4.832820000000E-01 -1.702470000000E-01
 156 T  14 SI   -1.995360000000E-01  4.150860000000E-01 -1.491730000000E-01

 T = ATOM BELONGING TO THE ASYMMETRIC UNIT

 ****   1 SYMMOPS - TRANSLATORS IN FRACTIONAL UNITS
  V INV                   ROTATION MATRICES                       TRANSLATOR
  1  1  1.00  0.00  0.00  0.00  1.00  0.00  0.00  0.00  1.00    0.00  0.00  0.00

 DIRECT LATTICE VECTORS CARTESIAN COMPONENTS (ANGSTROM)
          X                    Y                    Z
   0.108558000000E+02   0.664726036109E-15   0.000000000000E+00
   0.000000000000E+00   0.106374000000E+02   0.000000000000E+00
   0.134638281422E-14   0.134638281422E-14   0.219881000000E+02


 CARTESIAN COORDINATES - PRIMITIVE CELL
 *******************************************************************************
 *      ATOM          X(ANGSTROM)         Y(ANGSTROM)         Z(ANGSTROM)
 *******************************************************************************
   1     8 O     7.725638628000E-01  6.503387238000E-01  1.924046702400E+00
   2     8 O     1.618578068400E+00 -3.717654288600E+00  7.395697435000E-01
   3     8 O    -4.561911122400E+00  7.922310024000E-01  1.124845231700E+00
   4     8 O    -4.553183059200E+00 -4.510832019600E+00  1.824616514200E+00
   5     8 O    -4.918328748000E+00  4.071230827200E+00  1.051031180000E-02
   6     8 O    -1.114923227400E+00 -3.899351718000E+00  1.125350958000E-01
   7     8 O    -4.196689443000E+00 -1.690421146200E+00  3.902228107000E-01
   8     8 O     1.963911922200E+00  4.591825183200E+00 -9.846161239500E+00
   9     8 O     1.840188369600E+00 -5.480920350000E-01 -9.961664728800E+00
  10     8 O    -4.014974206800E+00  4.593601629000E+00 -1.040307583630E+01
  11     8 O    -3.439671085800E+00 -1.659328026000E-01 -1.002125247980E+01
  12     8 O     5.389937267400E+00  3.087856384200E+00 -7.722308672400E+00
  13     8 O    -2.690088951600E+00  4.111344462600E+00 -8.414801893800E+00
  14     8 O    -4.909774377600E+00 -4.930977407400E+00 -8.398288830700E+00
  15     8 O     5.130505359000E+00 -3.092132619000E+00 -9.563086440100E+00
  16     8 O     3.713714901000E+00  2.555231128800E+00 -9.525178955700E+00
  17     8 O    -2.876483037600E+00  2.311294272000E+00 -1.037442534200E+01
  18     8 O    -2.122526016000E-01  1.296422487600E+00 -9.066793035000E+00
  19     8 O     6.649068942000E-01 -4.018905456600E+00 -8.798098453000E+00
  20     8 O    -1.053327418200E+00 -6.946009452000E-01 -7.817253288200E+00
  21     8 O    -2.894916186000E+00 -2.209664552400E+00 -8.533537633800E+00
  22     8 O     3.807422166600E+00  6.323083308000E-01 -7.818022871700E+00
  23     8 O     2.432198566800E+00 -1.508617342800E+00 -3.470052001500E+00
  24     8 O     2.732469994800E+00  3.097493868600E+00 -7.109214480100E+00
  25     8 O     1.802225637000E+00  2.691942993600E+00 -2.402749627500E+00
  26     8 O     1.960101536400E+00 -5.109090033000E+00 -6.658766263500E+00
  27     8 O    -1.053479399400E+00  4.032978736800E+00 -1.131947388000E-01
  28     8 O     3.517344334800E+00  8.555022576000E-01 -3.168397257600E+00
  29     8 O    -4.170125300400E+00  1.875522543600E+00 -5.402915932000E+00
  30     8 O     2.194586816400E+00 -3.907319130600E+00 -1.657045204100E+00
  31     8 O    -2.436193501200E+00  7.331508828000E-01 -3.812450694700E+00
  32     8 O     4.703340484800E+00  4.599686221800E+00 -2.289840734000E+00
  33     8 O     2.537271855000E+00  4.999205691000E+00 -3.713592197100E+00
  34     8 O     1.836692802000E-01 -1.473492648000E+00 -5.244315766700E+00
  35     8 O     8.075629620000E-02 -1.435878801600E+00 -6.438115680000E-02
  36     8 O     1.102124239200E+00  8.380037346000E-01 -6.825260156700E+00
  37     8 O    -1.451257623000E+00  4.953177661200E+00 -4.678078215500E+00
  38     8 O     4.266774487800E+00 -3.894979746600E+00 -3.804007264300E+00
  39     8 O    -1.830537563400E+00 -2.787668956200E+00 -4.030572646700E+00
  40     8 O     5.273769351600E+00 -2.006851884000E-01 -1.149098106000E+00
  41     8 O     5.035278281400E+00 -1.250468919600E+00 -3.941564817900E+00
  42     8 O    -4.907331822600E+00 -2.718079085400E+00 -2.104612979600E+00
  43     8 O    -9.260648748000E-01  9.423991782000E-01 -1.284962575900E+00
  44     8 O    -3.481444204200E+00  1.621224859200E+00 -1.425994249300E+00
  45     8 O    -2.571956136000E-01 -3.857525461200E+00 -6.349789482300E+00
  46     8 O     1.226596842000E-01 -8.834147952000E-01 -2.638308142800E+00
  47     8 O     1.824621152400E+00  4.838740512000E-01 -1.022468638100E+00
  48     8 O     3.609249537600E+00  5.268363823200E+00 -2.231792150000E-02
  49     8 O     4.087100142000E-01  4.859919575400E+00 -2.756933942300E+00
  50     8 O     1.194583087800E+00  3.244226164200E+00 -5.002402690500E+00
  51     8 O    -1.446285666600E+00  2.971802350200E+00 -2.833650423200E+00
  52     8 O    -1.576826661600E+00  1.420156724400E+00 -6.405969077800E+00
  53     8 O     3.215010304800E+00 -3.338654364000E-01 -5.589902734400E+00
  54     8 O     4.859924544000E+00  4.067092878600E+00 -4.835007285200E+00
  55     8 O     4.673563025400E+00 -1.746905740200E+00 -7.365969523800E+00
  56     8 O    -1.374452838000E-01  4.073517868200E+00 -6.961828245800E+00
  57     8 O    -3.664939791600E+00  3.901915331400E+00 -3.693956823800E+00
  58     8 O     2.166307457400E+00 -2.340249274800E+00 -7.232369828200E+00
  59     8 O    -4.377264820200E+00 -3.343217808600E+00 -4.979249221200E+00
  60     8 O    -2.317952127600E+00 -5.266863949800E+00 -1.946122754800E+00
  61     8 O     7.784259948000E-01 -3.383778214800E+00 -3.745430965900E+00
  62     8 O    -3.800420175600E+00  4.386395714400E+00 -6.251524663400E+00
  63     8 O     4.034015280000E+00 -2.558592547200E+00 -2.790070009000E-01
  64     8 O     3.947798516400E+00  2.481981992400E+00 -1.068247862300E+00
  65    14 SI    1.293815955600E+00 -5.143523296800E+00  2.459456937400E+00
  66    14 SI    4.713447234600E+00  2.014127865600E+00  1.883236788800E+00
  67    14 SI    5.984693982000E-01  3.422838747600E+00  3.367895288900E+00
  68    14 SI    3.504263095800E+00  7.232900130000E-01  3.460685070900E+00
  69    14 SI    2.048380902000E+00  2.121182659200E+00  4.680255037400E+00
  70    14 SI    4.816316795400E+00  4.626130798200E+00  4.715304068800E+00
  71    14 SI    1.823003638200E+00 -5.354016168000E-01  2.359015296600E+00
  72    14 SI    5.054189085000E+00 -3.556061545200E+00  2.336983220400E+00
  73    14 SI    3.567650112000E-01 -2.353780047600E+00  3.249445394200E+00
  74    14 SI    3.366958937400E+00 -4.675573433400E+00  3.454198581400E+00
  75    14 SI    2.034355208400E+00 -3.232695222600E+00  4.748857909400E+00
  76    14 SI    4.684071439800E+00 -6.007471650000E-01  4.938879069600E+00
  77    14 SI   -3.912126357600E+00  4.723675756200E+00  1.214446739200E+00
  78    14 SI   -5.006912076000E-01  1.742895440400E+00  2.131042675800E+00
  79    14 SI   -4.691713923000E+00  3.321049467000E+00  3.204325813000E+00
  80    14 SI   -2.177999154000E+00  4.994152926000E-01  3.172487044200E+00
  81    14 SI   -3.388236305400E+00  2.001777844200E+00  4.628341133300E+00
  82    14 SI   -7.640312040000E-01  4.774724638800E+00  4.749165742800E+00
  83    14 SI   -3.903376582800E+00 -6.820381758000E-01  1.745195497000E+00
  84    14 SI    4.385743200001E-03 -2.878810199400E+00  8.584374121000E-01
  85    14 SI   -4.817489221800E+00 -1.867533856200E+00  3.537819325700E+00
  86    14 SI   -1.400539325400E+00 -4.005108748800E+00  3.492831673100E+00
  87    14 SI   -3.267074721600E+00 -3.214249971000E+00  4.704551887900E+00
  88    14 SI   -7.100561664000E-01 -6.501685254000E-01  4.623679656100E+00
  89    14 SI    6.533454672000E-01  7.367250492000E-01  6.001827799800E+00
  90    14 SI    3.357232140600E+00  3.391075471200E+00  6.132239220900E+00
  91    14 SI    6.589362042000E-01 -4.601420118000E+00  6.116759598500E+00
  92    14 SI    3.303647911800E+00 -1.937900257200E+00  6.239299279800E+00
  93    14 SI   -4.738068189000E+00  7.730730450000E-01  6.156162273700E+00
  94    14 SI   -2.116729018800E+00  3.386065255800E+00  6.095651022500E+00
  95    14 SI   -4.694189045400E+00 -4.568497365000E+00  6.032325294500E+00
  96    14 SI   -2.014869047400E+00 -1.891574380200E+00  6.159020726700E+00
  97    14 SI    2.972209482000E+00 -3.847834789800E+00 -2.318865026000E-01
  98    14 SI    4.544237880000E-02  2.846461866000E+00  1.168007872000E-01
  99    14 SI    1.931529070800E+00  4.693146418200E+00  7.521997081400E+00
 100    14 SI    4.690443794400E+00  2.070484810800E+00  7.511640686300E+00
 101    14 SI    4.649756256000E-01  3.383586741600E+00  8.886292722100E+00
 102    14 SI    3.276627825600E+00  7.418203638000E-01  8.843020141300E+00
 103    14 SI    1.773533757600E+00  1.981311486600E+00  1.016386729640E+01
 104    14 SI    4.556266106400E+00  4.789978670400E+00  1.026274778210E+01
 105    14 SI    1.879779472200E+00 -6.067041090000E-01  7.534354393600E+00
 106    14 SI    4.744158292800E+00 -3.311135410200E+00  7.447963148700E+00
 107    14 SI    5.808612906000E-01 -1.978013892600E+00  8.990978066200E+00
 108    14 SI    3.329886380400E+00 -4.583623747800E+00  8.795547833400E+00
 109    14 SI    2.079971280000E+00 -3.262118271000E+00  1.027286230810E+01
 110    14 SI    4.723499705400E+00 -4.802041482000E-01  1.017756588270E+01
 111    14 SI   -3.435350477400E+00  4.750556466000E+00  7.536685132200E+00
 112    14 SI   -7.495387110000E-01  2.023563239400E+00  7.416762034800E+00
 113    14 SI   -4.879779802200E+00  3.477217136400E+00  8.905862131100E+00
 114    14 SI   -1.973855835000E+00  6.194583516000E-01  8.880795697100E+00
 115    14 SI   -3.545113471200E+00  1.893435925200E+00  9.975253374600E+00
 116    14 SI   -7.910512902000E-01  4.790542452600E+00  1.044865716760E+01
 117    14 SI   -3.424429542600E+00 -6.129695376000E-01  7.531451964400E+00
 118    14 SI   -6.963995700000E-01 -3.280489060800E+00  7.526306749000E+00
 119    14 SI   -4.837984972200E+00 -1.948197260400E+00  8.885303257600E+00
 120    14 SI   -2.093378193000E+00 -4.514501922600E+00  8.979390337500E+00
 121    14 SI   -3.564729901800E+00 -3.251151111600E+00  1.037099519840E+01
 122    14 SI   -8.375792490000E-01 -7.628079540000E-01  1.044584269080E+01
 123    14 SI    6.225584184000E-01  5.575805958000E-01 -1.031398005510E+01
 124    14 SI    2.975922165600E+00  3.510852595200E+00 -1.061921885930E+01
 125    14 SI    9.788240628000E-01 -4.774373604600E+00 -1.025142391060E+01
 126    14 SI    3.119837506200E+00 -1.551443515200E+00 -1.039687519210E+01
 127    14 SI   -3.309075811800E+00  1.129638693000E+00 -9.023102680300E+00
 128    14 SI   -2.540951971200E+00  4.001587769400E+00 -1.006788923990E+01
 129    14 SI   -4.981824322200E+00 -4.571305638600E+00 -1.024852148140E+01
 130    14 SI   -2.638165660200E+00 -1.647339676200E+00 -1.015406060380E+01
 131    14 SI    3.890957547600E+00  2.277520527000E+00 -7.944740292000E+00
 132    14 SI   -4.280116266000E+00  4.274937037200E+00 -7.801377880000E+00
 133    14 SI   -5.239291330800E+00 -2.940698592600E+00 -7.966156701400E+00
 134    14 SI   -2.324715291000E+00 -1.449367024800E+00 -7.065216292000E+00
 135    14 SI    2.815267181400E+00  1.530158077800E+00 -1.862677915300E+00
 136    14 SI   -1.987230180600E+00 -5.276161037400E+00 -3.060523639000E-01
 137    14 SI    3.599598731400E+00 -5.454752346000E-01 -4.048492948200E+00
 138    14 SI   -2.841777045000E+00  7.791576378000E-01 -5.487987890900E+00
 139    14 SI   -3.390049224000E-01  7.612655310000E-01 -7.412342426700E+00
 140    14 SI    1.455741068400E+00 -4.514448735600E+00 -2.903836438400E+00
 141    14 SI    1.257427314000E+00 -3.723238923600E+00 -7.280084005200E+00
 142    14 SI   -1.153189922400E+00 -2.517053500200E+00 -5.390690548400E+00
 143    14 SI   -5.252665676400E+00 -2.810603190600E+00 -3.797542762900E+00
 144    14 SI   -2.116946134800E+00  1.518446300400E+00 -2.400550817500E+00
 145    14 SI    4.508500586400E+00  4.079793934200E+00 -7.709027860000E-01
 146    14 SI    1.338140187000E+00  3.719345635200E+00 -3.499999793700E+00
 147    14 SI    8.560992438000E-01 -1.736778935400E+00 -3.790352654200E+00
 148    14 SI   -4.844921828400E+00  1.180496102400E+00 -5.527148697000E-01
 149    14 SI   -4.436124967800E+00  3.471175093200E+00 -5.053393094400E+00
 150    14 SI   -1.204548712200E+00  5.177850186600E+00 -6.291872826900E+00
 151    14 SI    3.281502079800E+00 -8.565234480000E-01 -7.113480171500E+00
 152    14 SI    2.954297412000E-01 -2.308209426000E-01 -1.178364267100E+00
 153    14 SI    1.464729670800E+00  3.918318202200E+00 -6.512413469900E+00
 154    14 SI   -5.361864168600E+00 -1.827377671200E+00 -8.244218214000E-01
 155    14 SI    4.272799456800E+00  5.140863946800E+00 -3.743408060700E+00
 156    14 SI   -2.166122908800E+00  4.415435816400E+00 -3.280030841300E+00

 *******************************************************************************
 LOCAL ATOMIC FUNCTIONS BASIS SET
 *******************************************************************************
   ATOM  X(AU)  Y(AU)  Z(AU)    NO. TYPE  EXPONENT  S COEF   P COEF   D/F/G COEF
 *******************************************************************************
   1 O   1.460  1.229  3.636
                                  1 S  
                                         8.020E+03 1.080E-03 0.000E+00 0.000E+00
                                         1.338E+03 8.040E-03 0.000E+00 0.000E+00
                                         2.554E+02 5.324E-02 0.000E+00 0.000E+00
                                         6.922E+01 1.681E-01 0.000E+00 0.000E+00
                                         2.390E+01 3.581E-01 0.000E+00 0.000E+00
                                         9.264E+00 3.855E-01 0.000E+00 0.000E+00
                                         3.851E+00 1.468E-01 0.000E+00 0.000E+00
                                         1.212E+00 7.280E-02 0.000E+00 0.000E+00
                             2-   5 SP 
                                         4.943E+01-8.830E-03 9.580E-03 0.000E+00
                                         1.047E+01-9.150E-02 6.960E-02 0.000E+00
                                         3.235E+00-4.020E-02 2.065E-01 0.000E+00
                                         1.217E+00 3.790E-01 3.470E-01 0.000E+00
                             6-   9 SP 
                                         4.763E-01 1.000E+00 1.000E+00 0.000E+00
                            10-  13 SP 
                                         1.900E-01 1.000E+00 1.000E+00 0.000E+00
   2 O   3.059 -7.025  1.398
   3 O  -8.621  1.497  2.126
   4 O  -8.604 -8.524  3.448
   5 O  -9.294  7.694  0.020
   6 O  -2.107 -7.369  0.213
   7 O  -7.931 -3.194  0.737
   8 O   3.711  8.677-18.607
   9 O   3.477 -1.036-18.825
  10 O  -7.587  8.681-19.659
  11 O  -6.500 -0.314-18.937
  12 O  10.186  5.835-14.593
  13 O  -5.084  7.769-15.902
  14 O  -9.278 -9.318-15.870
  15 O   9.695 -5.843-18.072
  16 O   7.018  4.829-18.000
  17 O  -5.436  4.368-19.605
  18 O  -0.401  2.450-17.134
  19 O   1.256 -7.595-16.626
  20 O  -1.991 -1.313-14.772
  21 O  -5.471 -4.176-16.126
  22 O   7.195  1.195-14.774
  23 O   4.596 -2.851 -6.557
  24 O   5.164  5.853-13.434
  25 O   3.406  5.087 -4.541
  26 O   3.704 -9.655-12.583
  27 O  -1.991  7.621 -0.214
  28 O   6.647  1.617 -5.987
  29 O  -7.880  3.544-10.210
  30 O   4.147 -7.384 -3.131
  31 O  -4.604  1.385 -7.204
  32 O   8.888  8.692 -4.327
  33 O   4.795  9.447 -7.018
  34 O   0.347 -2.784 -9.910
  35 O   0.153 -2.713 -0.122
  36 O   2.083  1.584-12.898
  37 O  -2.742  9.360 -8.840
  38 O   8.063 -7.360 -7.189
  39 O  -3.459 -5.268 -7.617
  40 O   9.966 -0.379 -2.171
  41 O   9.515 -2.363 -7.448
  42 O  -9.274 -5.136 -3.977
  43 O  -1.750  1.781 -2.428
  44 O  -6.579  3.064 -2.695
  45 O  -0.486 -7.290-11.999
  46 O   0.232 -1.669 -4.986
  47 O   3.448  0.914 -1.932
  48 O   6.820  9.956 -0.042
  49 O   0.772  9.184 -5.210
  50 O   2.257  6.131 -9.453
  51 O  -2.733  5.616 -5.355
  52 O  -2.980  2.684-12.106
  53 O   6.075 -0.631-10.563
  54 O   9.184  7.686 -9.137
  55 O   8.832 -3.301-13.920
  56 O  -0.260  7.698-13.156
  57 O  -6.926  7.374 -6.981
  58 O   4.094 -4.422-13.667
  59 O  -8.272 -6.318 -9.409
  60 O  -4.380 -9.953 -3.678
  61 O   1.471 -6.394 -7.078
  62 O  -7.182  8.289-11.814
  63 O   7.623 -4.835 -0.527
  64 O   7.460  4.690 -2.019
  65 SI  2.445 -9.720  4.648
                                833 S  
                                         8.765E+04 2.370E-04 0.000E+00 0.000E+00
                                         1.285E+04 1.920E-03 0.000E+00 0.000E+00
                                         2.786E+03 1.090E-02 0.000E+00 0.000E+00
                                         7.280E+02 4.960E-02 0.000E+00 0.000E+00
                                         2.195E+02 1.668E-01 0.000E+00 0.000E+00
                                         7.590E+01 3.630E-01 0.000E+00 0.000E+00
                                         2.946E+01 4.051E-01 0.000E+00 0.000E+00
                                         1.199E+01 1.504E-01 0.000E+00 0.000E+00
                           834- 837 SP 
                                         1.660E+02-8.840E-03 9.090E-03 0.000E+00
                                         3.937E+01-8.590E-02 6.010E-02 0.000E+00
                                         1.271E+01-7.120E-02 1.952E-01 0.000E+00
                                         4.718E+00 4.147E-01 3.384E-01 0.000E+00
                                         1.848E+00 6.168E-01 3.006E-01 0.000E+00
                                         7.365E-01 1.154E-01 6.480E-02 0.000E+00
                           838- 841 SP 
                                         4.175E+00-1.990E-02-8.700E-03 0.000E+00
                                         1.447E+00-1.864E-01-4.380E-03 0.000E+00
                                         5.023E-01 9.670E-02 2.207E-01 0.000E+00
                           842- 845 SP 
                                         3.220E-01 1.000E+00 1.000E+00 0.000E+00
                           846- 849 SP 
                                         1.300E-01 1.000E+00 1.000E+00 0.000E+00
                           850- 854 D  
                                         6.000E-01 0.000E+00 0.000E+00 1.000E+00
  66 SI  8.907  3.806  3.559
  67 SI  1.131  6.468  6.364
  68 SI  6.622  1.367  6.540
  69 SI  3.871  4.008  8.844
  70 SI  9.102  8.742  8.911
  71 SI  3.445 -1.012  4.458
  72 SI  9.551 -6.720  4.416
  73 SI  0.674 -4.448  6.141
  74 SI  6.363 -8.836  6.527
  75 SI  3.844 -6.109  8.974
  76 SI  8.852 -1.135  9.333
  77 SI -7.393  8.926  2.295
  78 SI -0.946  3.294  4.027
  79 SI -8.866  6.276  6.055
  80 SI -4.116  0.944  5.995
  81 SI -6.403  3.783  8.746
  82 SI -1.444  9.023  8.975
  83 SI -7.376 -1.289  3.298
  84 SI  0.008 -5.440  1.622
  85 SI -9.104 -3.529  6.686
  86 SI -2.647 -7.569  6.600
  87 SI -6.174 -6.074  8.890
  88 SI -1.342 -1.229  8.737
  89 SI  1.235  1.392 11.342
  90 SI  6.344  6.408 11.588
  91 SI  1.245 -8.695 11.559
  92 SI  6.243 -3.662 11.791
  93 SI -8.954  1.461 11.633
  94 SI -4.000  6.399 11.519
  95 SI -8.871 -8.633 11.399
  96 SI -3.808 -3.575 11.639
  97 SI  5.617 -7.271 -0.438
  98 SI  0.086  5.379  0.221
  99 SI  3.650  8.869 14.215
 100 SI  8.864  3.913 14.195
 101 SI  0.879  6.394 16.793
 102 SI  6.192  1.402 16.711
 103 SI  3.351  3.744 19.207
 104 SI  8.610  9.052 19.394
 105 SI  3.552 -1.147 14.238
 106 SI  8.965 -6.257 14.075
 107 SI  1.098 -3.738 16.990
 108 SI  6.293 -8.662 16.621
 109 SI  3.931 -6.165 19.413
 110 SI  8.926 -0.907 19.233
 111 SI -6.492  8.977 14.242
 112 SI -1.416  3.824 14.016
 113 SI -9.221  6.571 16.830
 114 SI -3.730  1.171 16.782
 115 SI -6.699  3.578 18.850
 116 SI -1.495  9.053 19.745
 117 SI -6.471 -1.158 14.232
 118 SI -1.316 -6.199 14.223
 119 SI -9.142 -3.682 16.791
 120 SI -3.956 -8.531 16.969
 121 SI -6.736 -6.144 19.598
 122 SI -1.583 -1.441 19.740
 123 SI  1.176  1.054-19.491
 124 SI  5.624  6.635-20.067
 125 SI  1.850 -9.022-19.372
 126 SI  5.896 -2.932-19.647
 127 SI -6.253  2.135-17.051
 128 SI -4.802  7.562-19.026
 129 SI -9.414 -8.639-19.367
 130 SI -4.985 -3.113-19.188
 131 SI  7.353  4.304-15.013
 132 SI -8.088  8.078-14.742
 133 SI -9.901 -5.557-15.054
 134 SI -4.393 -2.739-13.351
 135 SI  5.320  2.892 -3.520
 136 SI -3.755 -9.970 -0.578
 137 SI  6.802 -1.031 -7.651
 138 SI -5.370  1.472-10.371
 139 SI -0.641  1.439-14.007
 140 SI  2.751 -8.531 -5.487
 141 SI  2.376 -7.036-13.757
 142 SI -2.179 -4.757-10.187
 143 SI -9.926 -5.311 -7.176
 144 SI -4.000  2.869 -4.536
 145 SI  8.520  7.710 -1.457
 146 SI  2.529  7.029 -6.614
 147 SI  1.618 -3.282 -7.163
 148 SI -9.156  2.231 -1.044
 149 SI -8.383  6.560 -9.550
 150 SI -2.276  9.785-11.890
 151 SI  6.201 -1.619-13.443
 152 SI  0.558 -0.436 -2.227
 153 SI  2.768  7.405-12.307
 154 SI-10.132 -3.453 -1.558
 155 SI  8.074  9.715 -7.074
 156 SI -4.093  8.344 -6.198
 INFORMATION **** TOLINTEG **** COULOMB AND EXCHANGE SERIES TOLERANCES MODIFIED
 INFORMATION **** READM2 **** FULL DIRECT SCF (MONO AND BIEL INT) SELECTED
 INFORMATION **** SMEAR **** FERMI SMEARING ACTIVE
 FERMI SMEARING - TEMPERATURE SMEARING OF FERMI SURFACE  0.1000E-12
 INFORMATION **** MAXCYCLE **** MAX NUMBER OF SCF CYCLES SET TO         250

 MODIFIED BROYDEN MIXING OF THE FOCK MATRIX
 WO PARAMETER(D.D. Johnson, PRB38, 12807,(1988)             1.0000E-04
 % OF FOCK/KS MATRICES MIXING WHEN BROYDEN METHOD IS ON             90
 NUMBER OF SCF ITERATIONS AFTER WHICH BROYDEN METHOD IS ACTIVE      40
 INFORMATION **** TOLDEE **** SCF TOL ON TOTAL ENERGY SET TO           7
 *******************************************************************************
 N. OF ATOMS PER CELL      156  COULOMB OVERLAP TOL         (T1) 10** -8
 NUMBER OF SHELLS          808  COULOMB PENETRATION TOL     (T2) 10** -8
 NUMBER OF AO             2856  EXCHANGE OVERLAP TOL        (T3) 10** -8
 N. OF ELECTRONS PER CELL 1800  EXCHANGE PSEUDO OVP (F(G))  (T4) 10** -8
 CORE ELECTRONS PER CELL  1048  EXCHANGE PSEUDO OVP (P(G))  (T5) 10**-16
 N. OF SYMMETRY OPERATORS    1  POLE ORDER IN MONO ZONE                4
 *******************************************************************************
 TYPE OF CALCULATION :  UNRESTRICTED OPEN SHELL
 KOHN-SHAM HAMILTONIAN

 (EXCHANGE)[CORRELATION] FUNCTIONAL:(BECKE)[LEE-YANG-PARR]

 NON-LOCAL WEIGHTING FACTOR (EXCHANGE) =           0.9000
 NON-LOCAL WEIGHTING FACTOR [CORRELATION] =        0.8100

 HYBRID EXCHANGE - PERCENTAGE OF FOCK EXCHANGE     5.0000

 SPIN POLARIZED DFT SELECTED

 CAPPA:IS1  2;IS2  2;IS3  2; K PTS MONK NET    8; SYMMOPS: K SPACE  2;G SPACE  1

 *******************************************************************************
 MAX NUMBER OF SCF CYCLES     250  CONVERGENCE ON DELTAP        10**-17
 WEIGHT OF F(I) IN F(I+1)      95% CONVERGENCE ON ENERGY        10**- 7
 SHRINK. FACT.(MONKH.)    2  2  2  NUMBER OF K POINTS IN THE IBZ      8
 SHRINKING FACTOR(GILAT NET)    2  NUMBER OF K POINTS(GILAT NET)      8
 *******************************************************************************
 *** K POINTS COORDINATES (OBLIQUE COORDINATES IN UNITS OF IS =  2)
   1-R(  0  0  0)   2-R(  1  0  0)   3-R(  0  1  0)   4-R(  1  1  0)
   5-R(  0  0  1)   6-R(  1  0  1)   7-R(  0  1  1)   8-R(  1  1  1)

 DIRECT LATTICE VECTORS COMPON. (A.U.)     RECIP. LATTICE VECTORS COMPON. (A.U.) 
        X            Y            Z              X            Y            Z
   20.5144890    0.0000000    0.0000000      0.3062804    0.0000000    0.0000000
    0.0000000   20.1017728    0.0000000      0.0000000    0.3125687    0.0000000
    0.0000000    0.0000000   41.5514872      0.0000000    0.0000000    0.1512145

 DISK SPACE FOR EIGENVECTORS (FTN 10)   65253888 REALS

 SYMMETRY ADAPTION OF THE BLOCH FUNCTIONS DISABLED
 TTTTTTTTTTTTTTTTTTTTTTTTTTTTTT gordsh1     TELAPSE        3.75 TCPU        0.53

 DIMENSIONS  P(G)= 6626060 F(G)= 1182186 P(G),F(G) (IRR) 3321682
 MAX G-VECTOR INDEX FOR 1- AND 2-ELECTRON INTEGRALS  65

 TTTTTTTTTTTTTTTTTTTTTTTTTTTTTT INPUT       TELAPSE        4.28 TCPU        1.06

 NEIGHBORS OF THE NON-EQUIVALENT ATOMS

 N = NUMBER OF NEIGHBORS AT DISTANCE R
    ATOM  N     R/ANG      R/AU   NEIGHBORS (ATOM LABELS AND CELL INDICES)
   1 O    1     1.6427     3.1043  71 SI   0 0 0
   1 O    1     1.6905     3.1945  78 SI   0 0 0
   1 O    1     2.9356     5.5475  98 SI   0 0 0
   1 O    1     2.9639     5.6010  35 O    0 0 0
   1 O    1     3.1308     5.9163  67 SI   0 0 0
   1 O    1     3.1331     5.9208  47 O    0 0 0

   2 O    1     1.6712     3.1582  97 SI   0 0 0
   2 O    1     1.8230     3.4450  84 SI   0 0 0
   2 O    1     2.2576     4.2662  65 SI   0 0 0
   2 O    1     2.4721     4.6717  30 O    0 0 0
   2 O    1     2.6964     5.0954  48 O    0-1 0
   2 O    1     2.8104     5.3108   6 O    0 0 0

   3 O    1     1.7297     3.2687  83 SI   0 0 0
   3 O    1     1.7450     3.2976 148 SI   0 0 0
   3 O    1     2.1368     4.0380  66 SI  -1 0 0
   3 O    1     2.6147     4.9411   7 O    0 0 0
   3 O    1     2.6828     5.0697  40 O   -1 0 0
   3 O    1     2.8916     5.4644  44 O    0 0 0

   4 O    1     1.6531     3.1239  72 SI  -1 0 0
   4 O    1     1.6587     3.1345  77 SI   0-1 0
   4 O    1     2.7656     5.2263   5 O    0-1 0
   4 O    1     3.1295     5.9139  79 SI   0-1 0
   4 O    1     3.1610     5.9734  85 SI   0 0 0
   4 O    1     3.1842     6.0173   7 O    0 0 0

   5 O    1     1.6287     3.0778 145 SI  -1 0 0
   5 O    1     1.6993     3.2112  77 SI   0 0 0
   5 O    1     2.6182     4.9476  48 O   -1 0 0
   5 O    1     2.6634     5.0332  32 O   -1 0 0
   5 O    1     2.7655     5.2261  64 O   -1 0 0
   5 O    1     2.7656     5.2263   4 O    0 1 0

   6 O    1     1.6828     3.1800 136 SI   0 0 0
   6 O    1     1.6884     3.1906  84 SI   0 0 0
   6 O    1     2.7152     5.1309  27 O    0-1 0
   6 O    1     2.7440     5.1854  35 O    0 0 0
   6 O    1     2.7487     5.1943  60 O    0 0 0
   6 O    1     2.8104     5.3108   2 O    0 0 0

   7 O    1     1.6887     3.1912 154 SI   0 0 0
   7 O    1     1.7143     3.2396  83 SI   0 0 0
   7 O    1     2.5511     4.8208  40 O   -1 0 0
   7 O    1     2.6147     4.9411   3 O    0 0 0
   7 O    1     2.7902     5.2727  42 O    0 0 0
   7 O    1     2.8448     5.3758  63 O   -1 0 0

   8 O    1     1.6585     3.1341 125 SI   0 1 0
   8 O    1     1.6704     3.1566 124 SI   0 0 0
   8 O    1     2.6255     4.9615  19 O    0 1 0
   8 O    1     2.7042     5.1101  16 O    0 0 0
   8 O    1     3.2079     6.0621 104 SI   0 0-1
   8 O    1     3.2116     6.0691  24 O    0 0 0

   9 O    1     1.6820     3.1786 123 SI   0 0 0
   9 O    1     1.6833     3.1810 126 SI   0 0 0
   9 O    1     2.9010     5.4820  18 O    0 0 0
   9 O    1     3.1169     5.8900 122 SI   0 0-1
   9 O    1     3.1398     5.9334  22 O    0 0 0
   9 O    1     3.1419     5.9373 103 SI   0 0-1

  10 O    1     1.6234     3.0679 128 SI   0 0 0
  10 O    1     1.7683     3.3416 129 SI   0 1 0
  10 O    1     2.4374     4.6061  13 O    0 0 0
  10 O    1     2.4613     4.6513  14 O    0 1 0
  10 O    1     2.5507     4.8201  17 O    0 0 0
  10 O    1     2.6345     4.9785 132 SI   0 0 0

  11 O    1     1.6407     3.1005 127 SI   0 0 0
  11 O    1     1.6896     3.1928 130 SI   0 0 0
  11 O    1     2.5649     4.8469  17 O    0 0 0
  11 O    1     2.5859     4.8866  21 O    0 0 0
  11 O    1     2.8668     5.4175 115 SI   0 0-1
  11 O    1     3.0726     5.8063 122 SI   0 0-1

  12 O    1     1.6797     3.1742 132 SI   1 0 0
  12 O    1     1.7184     3.2474 131 SI   0 0 0
  12 O    1     2.5187     4.7596  16 O    0 0 0
  12 O    1     2.5735     4.8633  62 O    1 0 0
  12 O    1     2.7273     5.1538  24 O    0 0 0
  12 O    1     2.7610     5.2175  14 O    1 1 0

  13 O    1     1.6634     3.1434 128 SI   0 0 0
  13 O    1     1.7121     3.2354 132 SI   0 0 0
  13 O    1     2.4374     4.6061  10 O    0 0 0
  13 O    1     2.4471     4.6243  62 O    0 0 0
  13 O    1     2.6674     5.0407  17 O    0 0 0
  13 O    1     2.7334     5.1654  14 O    0 1 0

  14 O    1     1.6739     3.1632 132 SI   0-1 0
  14 O    1     1.8862     3.5645 129 SI   0 0 0
  14 O    1     2.0631     3.8988 133 SI   0 0 0
  14 O    1     2.3245     4.3926  15 O   -1 0 0
  14 O    1     2.4613     4.6513  10 O    0-1 0
  14 O    1     2.7334     5.1654  13 O    0-1 0

  15 O    1     1.6761     3.1674 133 SI   1 0 0
  15 O    1     1.7918     3.3860 129 SI   1 0 0
  15 O    1     2.3245     4.3926  14 O    1 0 0
  15 O    1     2.6164     4.9444  55 O    0 0 0
  15 O    1     2.6668     5.0395 126 SI   0 0 0
  15 O    1     2.9854     5.6415 121 SI   1 0-1

  16 O    1     1.6144     3.0508 131 SI   0 0 0
  16 O    1     1.6293     3.0788 124 SI   0 0 0
  16 O    1     2.5187     4.7596  12 O    0 0 0
  16 O    1     2.5731     4.8624  22 O    0 0 0
  16 O    1     2.6634     5.0331  24 O    0 0 0
  16 O    1     2.7042     5.1101   8 O    0 0 0

  17 O    1     1.7503     3.3076 128 SI   0 0 0
  17 O    1     1.8183     3.4360 115 SI   0 0-1
  17 O    1     1.8465     3.4894 127 SI   0 0 0
  17 O    1     2.5507     4.8201  10 O    0 0 0
  17 O    1     2.5649     4.8469  11 O    0 0 0
  17 O    1     2.6674     5.0407  13 O    0 0 0

  18 O    1     1.6728     3.1611 123 SI   0 0 0
  18 O    1     1.7435     3.2947 139 SI   0 0 0
  18 O    1     2.4966     4.7179  20 O    0 0 0
  18 O    1     2.6386     4.9862  36 O    0 0 0
  18 O    1     2.9010     5.4820   9 O    0 0 0
  18 O    1     2.9929     5.6557  52 O    0 0 0

  19 O    1     1.6562     3.1297 141 SI   0 0 0
  19 O    1     1.6678     3.1516 125 SI   0 0 0
  19 O    1     2.6212     4.9533  45 O    0 0 0
  19 O    1     2.6255     4.9615   8 O    0-1 0
  19 O    1     2.7281     5.1554  26 O    0 0 0
  19 O    1     2.7429     5.1834  58 O    0 0 0

  20 O    1     1.6588     3.1347 134 SI   0 0 0
  20 O    1     1.6715     3.1586 139 SI   0 0 0
  20 O    1     2.4900     4.7054  21 O    0 0 0
  20 O    1     2.4966     4.7179  18 O    0 0 0
  20 O    1     2.5958     4.9053  52 O    0 0 0
  20 O    1     2.8247     5.3379  36 O    0 0 0

  21 O    1     1.7344     3.2776 130 SI   0 0 0
  21 O    1     1.7490     3.3052 134 SI   0 0 0
  21 O    1     2.4900     4.7054  20 O    0 0 0
  21 O    1     2.5204     4.7629 133 SI   0 0 0
  21 O    1     2.5859     4.8866  11 O    0 0 0
  21 O    1     3.1384     5.9308  15 O   -1 0 0

  22 O    1     1.6522     3.1222 131 SI   0 0 0
  22 O    1     1.7290     3.2674 151 SI   0 0 0
  22 O    1     2.4998     4.7239  53 O    0 0 0
  22 O    1     2.5720     4.8604  55 O    0 0 0
  22 O    1     2.5731     4.8624  16 O    0 0 0
  22 O    1     2.7812     5.2557  24 O    0 0 0

  23 O    1     1.6202     3.0617 137 SI   0 0 0
  23 O    1     1.6244     3.0697 147 SI   0 0 0
  23 O    1     2.5154     4.7533  61 O    0 0 0
  23 O    1     2.5331     4.7869  46 O    0 0 0
  23 O    1     2.5469     4.8129  53 O    0 0 0
  23 O    1     2.6187     4.9486  28 O    0 0 0

  24 O    1     1.6239     3.0687 153 SI   0 0 0
  24 O    1     1.6470     3.1123 131 SI   0 0 0
  24 O    1     2.5900     4.8945  26 O    0 1 0
  24 O    1     2.6125     4.9370  50 O    0 0 0
  24 O    1     2.6634     5.0331  16 O    0 0 0
  24 O    1     2.7273     5.1538  12 O    0 0 0

  25 O    1     1.5732     2.9729 146 SI   0 0 0
  25 O    1     1.6333     3.0865 135 SI   0 0 0
  25 O    1     2.5354     4.7913  64 O    0 0 0
  25 O    1     2.6014     4.9160  49 O    0 0 0
  25 O    1     2.6041     4.9210  47 O    0 0 0
  25 O    1     2.6269     4.9640  28 O    0 0 0

  26 O    1     1.6734     3.1623 141 SI   0 0 0
  26 O    1     1.6908     3.1952 153 SI   0-1 0
  26 O    1     2.5648     4.8468  45 O    0 0 0
  26 O    1     2.5706     4.8577  56 O    0-1 0
  26 O    1     2.5900     4.8945  24 O    0-1 0
  26 O    1     2.7281     5.1554  19 O    0 0 0

  27 O    1     1.6335     3.0869  98 SI   0 0 0
  27 O    1     1.6350     3.0898 136 SI   0 1 0
  27 O    1     2.5976     4.9088  60 O    0 1 0
  27 O    1     2.7152     5.1309   6 O    0 1 0
  27 O    1     2.9464     5.5679  51 O    0 0 0
  27 O    1     3.1323     5.9192  49 O    0 0 0

  28 O    1     1.6288     3.0780 135 SI   0 0 0
  28 O    1     1.6565     3.1304 137 SI   0 0 0
  28 O    1     2.6187     4.9486  23 O    0 0 0
  28 O    1     2.6269     4.9640  25 O    0 0 0
  28 O    1     2.6910     5.0852  64 O    0 0 0
  28 O    1     2.7087     5.1187  41 O    0 0 0

  29 O    1     1.6550     3.1275 149 SI   0 0 0
  29 O    1     1.7245     3.2588 138 SI   0 0 0
  29 O    1     2.6156     4.9427  31 O    0 0 0
  29 O    1     2.6761     5.0570  62 O    0 0 0
  29 O    1     2.6985     5.0995  57 O    0 0 0
  29 O    1     2.8176     5.3244  52 O    0 0 0

  30 O    1     1.5713     2.9693 140 SI   0 0 0
  30 O    1     1.6246     3.0700  97 SI   0 0 0
  30 O    1     2.4721     4.6717   2 O    0 0 0
  30 O    1     2.5770     4.8698  61 O    0 0 0
  30 O    1     2.6096     4.9315  48 O    0-1 0
  30 O    1     2.6649     5.0359  63 O    0 0 0

  31 O    1     1.6468     3.1121 144 SI   0 0 0
  31 O    1     1.7245     3.2589 138 SI   0 0 0
  31 O    1     2.6156     4.9427  29 O    0 0 0
  31 O    1     2.6362     4.9817  51 O    0 0 0
  31 O    1     2.7525     5.2015  44 O    0 0 0
  31 O    1     2.8172     5.3238  52 O    0 0 0

  32 O    1     1.6097     3.0419 155 SI   0 0 0
  32 O    1     1.6172     3.0561 145 SI   0 0 0
  32 O    1     2.5589     4.8356  64 O    0 0 0
  32 O    1     2.6050     4.9227  48 O    0 0 0
  32 O    1     2.6050     4.9227  54 O    0 0 0
  32 O    1     2.6227     4.9562  33 O    0 0 0

  33 O    1     1.7416     3.2911 155 SI   0 0 0
  33 O    1     1.7573     3.3209 140 SI   0 1 0
  33 O    1     1.7668     3.3388 146 SI   0 0 0
  33 O    1     2.3378     4.4178  49 O    0 0 0
  33 O    1     2.4573     4.6436  38 O    0 1 0
  33 O    1     2.5581     4.8341  50 O    0 0 0

  34 O    1     1.6234     3.0678 147 SI   0 0 0
  34 O    1     1.7022     3.2168 142 SI   0 0 0
  34 O    1     2.4999     4.7242  61 O    0 0 0
  34 O    1     2.6646     5.0353  45 O    0 0 0
  34 O    1     2.6727     5.0506  46 O    0 0 0
  34 O    1     2.6939     5.0908  39 O    0 0 0

  35 O    1     1.6551     3.1276 152 SI   0 0 0
  35 O    1     1.7145     3.2399  84 SI   0 0 0
  35 O    1     2.6329     4.9754  46 O    0 0 0
  35 O    1     2.7440     5.1854   6 O    0 0 0
  35 O    1     2.7649     5.2248  47 O    0 0 0
  35 O    1     2.8565     5.3980  43 O    0 0 0

  36 O    1     1.5580     2.9442 139 SI   0 0 0
  36 O    1     2.6386     4.9862  18 O    0 0 0
  36 O    1     2.7136     5.1280  53 O    0 0 0
  36 O    1     2.7734     5.2409  52 O    0 0 0
  36 O    1     2.7756     5.2452 151 SI   0 0 0
  36 O    1     2.8007     5.2926  24 O    0 0 0

  37 O    1     1.6479     3.1141 150 SI   0 0 0
  37 O    1     1.6597     3.1365 156 SI   0 0 0
  37 O    1     2.6408     4.9905  57 O    0 0 0
  37 O    1     2.6756     5.0562  49 O    0 0 0
  37 O    1     2.7070     5.1155  51 O    0 0 0
  37 O    1     2.7490     5.1949  45 O    0 1 0

  38 O    1     1.6027     3.0287 155 SI   0-1 0
  38 O    1     1.7210     3.2522 143 SI   1 0 0
  38 O    1     2.4573     4.6436  33 O    0-1 0
  38 O    1     2.5647     4.8465  59 O    1 0 0
  38 O    1     2.6598     5.0263  32 O    0-1 0
  38 O    1     2.6648     5.0357  42 O    1 0 0

  39 O    1     1.5434     2.9165 142 SI   0 0 0
  39 O    1     2.6913     5.0859  61 O    0 0 0
  39 O    1     2.6939     5.0908  34 O    0 0 0
  39 O    1     2.7739     5.2419  59 O    0 0 0
  39 O    1     2.8948     5.4705 147 SI   0 0 0
  39 O    1     2.9922     5.6544  37 O    0-1 0

  40 O    1     1.6733     3.1621 154 SI   1 0 0
  40 O    1     1.6753     3.1659 148 SI   1 0 0
  40 O    1     2.5511     4.8208   7 O    1 0 0
  40 O    1     2.6828     5.0697   3 O    1 0 0
  40 O    1     2.7759     5.2456  42 O    1 0 0
  40 O    1     2.7944     5.2806  44 O    1 0 0

  41 O    1     1.6030     3.0292 137 SI   0 0 0
  41 O    1     1.6665     3.1492 143 SI   1 0 0
  41 O    1     2.5223     4.7665  42 O    1 0 0
  41 O    1     2.6212     4.9533  53 O    0 0 0
  41 O    1     2.6580     5.0229  23 O    0 0 0
  41 O    1     2.7087     5.1187  28 O    0 0 0

  42 O    1     1.6245     3.0698 154 SI   0 0 0
  42 O    1     1.7303     3.2697 143 SI   0 0 0
  42 O    1     2.5223     4.7665  41 O   -1 0 0
  42 O    1     2.6502     5.0081  63 O   -1 0 0
  42 O    1     2.6648     5.0357  38 O   -1 0 0
  42 O    1     2.7759     5.2456  40 O   -1 0 0

  43 O    1     1.6970     3.2069 152 SI   0 0 0
  43 O    1     1.7305     3.2701 144 SI   0 0 0
  43 O    1     2.5030     4.7300  46 O    0 0 0
  43 O    1     2.5562     4.8305  98 SI   0 0 0
  43 O    1     2.6053     4.9233  51 O    0 0 0
  43 O    1     2.6478     5.0036  44 O    0 0 0

  44 O    1     1.6781     3.1711 148 SI   0 0 0
  44 O    1     1.6799     3.1746 144 SI   0 0 0
  44 O    1     2.6478     5.0036  43 O    0 0 0
  44 O    1     2.7525     5.2015  31 O    0 0 0
  44 O    1     2.7944     5.2806  40 O   -1 0 0
  44 O    1     2.8191     5.3274  51 O    0 0 0

  45 O    1     1.7826     3.3686 141 SI   0 0 0
  45 O    1     1.8621     3.5188 150 SI   0-1 0
  45 O    1     1.8760     3.5452 142 SI   0 0 0
  45 O    1     2.5648     4.8468  26 O    0 0 0
[...]
 SUMMED SPIN DENSITY          -2.00000000
 TOTAL ATOMIC SPINS  :
   0.0001742   0.0026056   0.0178612  -0.0093735  -0.0088204   0.0072746
  -0.0025794   0.0001804   0.0080816  -0.0064896  -0.0000784  -0.0024048
  -0.0104928  -0.0287942  -0.0207386  -0.0002651  -0.0009788  -0.0002944
  -0.0001163  -0.0052537  -0.0231161  -0.0046161  -0.0000974  -0.0009311
  -0.0011716   0.0004244   0.0011362   0.0000400  -0.0001929  -0.0009394
  -0.0006554   0.0009065  -0.0000059  -0.0022639   0.0001801  -0.0039953
  -0.0163123  -0.0002251  -0.0149234  -0.0004248  -0.0001707  -0.0018383
  -0.0003553   0.0116071  -0.0275473  -0.0000199   0.0004486   0.0026207
  -0.0009024  -0.0005267  -0.0019783  -0.0006559   0.0002594  -0.0004108
  -0.0045837  -0.0008230   0.0002954  -0.0023155  -0.0424332   0.0002380
  -0.0003676  -0.0092793  -0.0188509  -0.0313388   0.0125899  -0.1052886
  -0.0001655  -0.0190056   0.0030141  -0.0182026   0.0031950  -0.5153321
   0.0209174  -0.0322196   0.0310610  -0.0167363   0.0014904   0.0004652
  -0.0190508  -0.0071662  -0.0124762  -0.0038747  -0.0411943   0.0150724
  -0.0103840   0.4726086   0.0040051  -0.0086827   0.0009214  -0.0200021
   0.0138243   0.0156037  -0.0022092  -0.0080497   0.0065015   0.0227020
  -0.0297310  -0.0016434   0.0212596   0.0027307   0.0000859   0.0146657
   0.0000292  -0.0059379  -0.0049917   0.0067962   0.0097863   0.0085171
   0.0193763   0.0067036   0.0026681   0.0013627  -0.0022647   0.0067038
   0.0376377   0.0001321   0.0297522  -0.0039883   0.0055995  -0.0005568
   0.0052266  -0.0063439   0.0087114  -0.0002512   0.0019119   0.4777449
  -0.0007064  -0.0034513   0.0079738  -0.0134428   0.0011294  -0.0075632
  -0.5775175  -0.0105165  -0.0047641   0.0069769   0.0005806  -0.0050025
   0.0005165  -0.0012399  -0.0086780   0.0100330  -0.0098686  -0.0230998
  -0.0035500  -0.0019552  -0.0001414  -0.6547388  -0.0049810  -0.8400489
   0.0535034  -0.0020735  -0.0198030  -0.0164541  -0.0001430  -0.0099845
 TTTTTTTTTTTTTTTTTTTTTTTTTTTTTT MOQGAD      TELAPSE    32152.70 TCPU    28937.85
 WARNING **** GENBUD **** COUL. BIPO BUFFER TOO SMALL - TO AVOID I/O SET BIPOSIZE =     2022225
 TTTTTTTTTTTTTTTTTTTTTTTTTTTTTT SHELLX      TELAPSE    32231.37 TCPU    29014.79
 TTTTTTTTTTTTTTTTTTTTTTTTTTTTTT MONMO3      TELAPSE    32240.93 TCPU    29024.33
 NUMERICALLY INTEGRATED DENSITY    899.0001247745    901.0001266135
 TTTTTTTTTTTTTTTTTTTTTTTTTTTTTT NUMDFT      TELAPSE    32246.99 TCPU    29030.38
 CYC 144 ETOT(AU) -3.144685729943E+04 DETOT -1.14E-06 tst  3.39E-08 PX  1.07E-03
 MODIFIED BROYDEN: MIX%=  90 W0=  1.000000000000E-04 W=  1.084787608069E+02
 TTTTTTTTTTTTTTTTTTTTTTTTTTTTTT FDIK        TELAPSE    32349.59 TCPU    29124.22

    ALPHA      ELECTRONS
 INSULATING STATE
 TOP OF VALENCE BANDS -    BAND    899; K    7; EIG -1.0551011E-01 AU
 TOP OF VALENCE BANDS -    BAND    899; K    1; EIG -1.0727689E-01 AU
 BOTTOM OF VIRTUAL BANDS - BAND    900; K    1; EIG -8.9764189E-02 AU

    BETA       ELECTRONS
 INSULATING STATE
 TOP OF VALENCE BANDS -    BAND    901; K    6; EIG -9.8384989E-02 AU
 TOP OF VALENCE BANDS -    BAND    901; K    1; EIG -8.0466596E-02 AU
 BOTTOM OF VIRTUAL BANDS - BAND    902; K    8; EIG -8.9104302E-02 AU
 BOTTOM OF VIRTUAL BANDS - BAND    902; K    1; EIG -7.8285747E-02 AU
 TTTTTTTTTTTTTTTTTTTTTTTTTTTTTT PDIG        TELAPSE    32352.83 TCPU    29127.45
 CHARGE NORMALIZATION FACTOR   1.00000000
 TOTAL ATOMIC CHARGES:
   8.6498806   8.7384184   8.7394661   8.6090223   8.6486263   8.6647272
   8.7218423   8.6386835   8.6577275   8.7336671   8.6952040   8.7552429
   8.6604748   8.8348982   8.7413215   8.6387633   8.7981786   8.6824348
   8.6498240   8.6846646   8.7630178   8.6960669   8.6601114   8.6520322
   8.5824401   8.6651445   8.6934532   8.5881515   8.6526730   8.6432528
   8.6573087   8.6098831   8.8177829   8.5086378   8.7045542   8.6050461
   8.6714191   8.6234370   8.4748539   8.6760163   8.6240413   8.6155500
   8.7717910   8.6495446   8.8408557   8.5517206   8.6609239   8.6795483
   8.5234161   8.5031953   8.7081211   8.6524283   8.5771155   8.6083729
   8.6357161   8.6173314   8.6594627   8.7496831   8.6197016   8.6019298
   8.5585836   8.6147363   8.6615122   8.7382395  13.7921695  13.7992235
  14.0753833  14.1504216  13.9871815  13.9941258  13.4713664  13.5770321
  14.1285260  14.0903994  14.0226030  14.0010696  13.3871517  13.7583531
  14.0513650  14.0429125  13.9973754  14.0567977  13.2590708  12.9975432
  14.1133868  13.9369321  14.0033873  14.0196584  13.9937860  13.9810524
  13.9949420  13.9959038  13.9925227  13.9935561  13.9990435  14.0064280
  12.6600122  13.4258151  13.9918303  14.0116472  14.0123214  14.0433893
  14.1139395  14.0093902  13.9876098  13.9896442  14.0188253  14.0380936
  14.0880303  13.9325317  14.0015727  13.9959141  14.0006683  14.0559984
  13.6008968  14.0900667  13.9930460  13.9781861  14.0145277  13.9995515
  14.0669108  14.0759823  13.2065748  13.3003809  13.2740520  13.4824190
  13.1086831  13.0405792  13.1630770  13.2357393  12.5643391  12.6702474
  12.8411229  13.3790931  12.6746760  12.9324806  12.8105445  13.0093053
  12.9219894  12.7844722  12.6317170  13.2612126  12.9123748  12.6431435
  12.6305521  12.8880133  12.9155513  12.9459089  12.8147608  12.8265232
  12.5784861  12.6309367  12.6981133  12.7158053  12.7171708  12.6110113
 SUMMED SPIN DENSITY          -2.00000000
 TOTAL ATOMIC SPINS  :
   0.0001707   0.0026025   0.0178700  -0.0093625  -0.0088172   0.0072773
  -0.0025794   0.0001811   0.0080728  -0.0064918  -0.0000817  -0.0024060
  -0.0104844  -0.0287954  -0.0207315  -0.0002654  -0.0009794  -0.0002942
  -0.0001168  -0.0052540  -0.0231241  -0.0046179  -0.0000974  -0.0009320
  -0.0011710   0.0004229   0.0011354   0.0000399  -0.0001940  -0.0009401
  -0.0006559   0.0009080  -0.0000056  -0.0022650   0.0001785  -0.0039953
  -0.0163131  -0.0002252  -0.0149159  -0.0004213  -0.0001706  -0.0018376
  -0.0003545   0.0116119  -0.0275440  -0.0000200   0.0004484   0.0026201
  -0.0009025  -0.0005266  -0.0019778  -0.0006560   0.0002583  -0.0004115
  -0.0045826  -0.0008223   0.0002939  -0.0023127  -0.0424495   0.0002381
  -0.0003680  -0.0092783  -0.0188476  -0.0313362   0.0126203  -0.1053005
  -0.0001664  -0.0190079   0.0030071  -0.0181953   0.0031784  -0.5153151
   0.0209063  -0.0322264   0.0310718  -0.0167405   0.0014861   0.0004609
  -0.0190582  -0.0071726  -0.0124826  -0.0038958  -0.0412125   0.0150647
  -0.0103769   0.4726956   0.0040051  -0.0086879   0.0009173  -0.0200010
   0.0138195   0.0156040  -0.0022125  -0.0080588   0.0064917   0.0227071
  -0.0297330  -0.0016448   0.0212539   0.0027364   0.0000830   0.0146645
   0.0000267  -0.0059399  -0.0049979   0.0067884   0.0097869   0.0085162
   0.0193639   0.0067027   0.0026687   0.0013571  -0.0022677   0.0067008
   0.0376766   0.0001324   0.0297544  -0.0039909   0.0055916  -0.0005603
   0.0052222  -0.0063487   0.0087121  -0.0002534   0.0019115   0.4779167
  -0.0007078  -0.0034542   0.0079641  -0.0134544   0.0011259  -0.0075701
  -0.5775827  -0.0105301  -0.0047622   0.0069738   0.0005795  -0.0050017
   0.0005157  -0.0012407  -0.0086955   0.0100262  -0.0098806  -0.0231018
  -0.0035507  -0.0019563  -0.0001417  -0.6546856  -0.0049791  -0.8400586
   0.0534993  -0.0020736  -0.0198147  -0.0164612  -0.0001442  -0.0099905
 TTTTTTTTTTTTTTTTTTTTTTTTTTTTTT MOQGAD      TELAPSE    32352.99 TCPU    29127.61
 WARNING **** GENBUD **** COUL. BIPO BUFFER TOO SMALL - TO AVOID I/O SET BIPOSIZE =     2022225
 TTTTTTTTTTTTTTTTTTTTTTTTTTTTTT SHELLX      TELAPSE    32431.00 TCPU    29203.24
 TTTTTTTTTTTTTTTTTTTTTTTTTTTTTT MONMO3      TELAPSE    32443.10 TCPU    29215.32
 NUMERICALLY INTEGRATED DENSITY    899.0001247675    901.0001266070
 TTTTTTTTTTTTTTTTTTTTTTTTTTTTTT NUMDFT      TELAPSE    32449.40 TCPU    29221.61
 CYC 145 ETOT(AU) -3.144685730027E+04 DETOT -8.40E-07 tst  4.68E-09 PX  2.60E-04
 MODIFIED BROYDEN: MIX%=  90 W0=  1.000000000000E-04 W=  1.618560281864E+02
 TTTTTTTTTTTTTTTTTTTTTTTTTTTTTT FDIK        TELAPSE    32561.65 TCPU    29324.29

    ALPHA      ELECTRONS
 INSULATING STATE
 TOP OF VALENCE BANDS -    BAND    899; K    7; EIG -1.0551854E-01 AU
 TOP OF VALENCE BANDS -    BAND    899; K    1; EIG -1.0728297E-01 AU
 BOTTOM OF VIRTUAL BANDS - BAND    900; K    1; EIG -8.9765937E-02 AU

    BETA       ELECTRONS
 INSULATING STATE
 TOP OF VALENCE BANDS -    BAND    901; K    6; EIG -9.8386523E-02 AU
 TOP OF VALENCE BANDS -    BAND    901; K    1; EIG -8.0472496E-02 AU
 BOTTOM OF VIRTUAL BANDS - BAND    902; K    8; EIG -8.9102451E-02 AU
 BOTTOM OF VIRTUAL BANDS - BAND    902; K    1; EIG -7.8279748E-02 AU
 TTTTTTTTTTTTTTTTTTTTTTTTTTTTTT PDIG        TELAPSE    32564.88 TCPU    29327.52
 CHARGE NORMALIZATION FACTOR   1.00000000
 TOTAL ATOMIC CHARGES:
   8.6499060   8.7384291   8.7394862   8.6090277   8.6486173   8.6647244
   8.7218529   8.6386791   8.6577267   8.7336698   8.6952337   8.7552319
   8.6604564   8.8348361   8.7413499   8.6387802   8.7981661   8.6824448
   8.6498328   8.6846876   8.7629808   8.6960888   8.6601195   8.6520385
   8.5824523   8.6651319   8.6934453   8.5881452   8.6526605   8.6432540
   8.6573068   8.6098905   8.8177774   8.5086384   8.7045516   8.6050526
   8.6713733   8.6234473   8.4747839   8.6760382   8.6240377   8.6155564
   8.7717888   8.6495520   8.8408442   8.5517112   8.6609416   8.6795618
   8.5234146   8.5031982   8.7081345   8.6524389   8.5771228   8.6083616
   8.6357014   8.6172988   8.6594723   8.7496792   8.6196245   8.6019250
   8.5585741   8.6146676   8.6615318   8.7382133  13.7922452  13.7992179
  14.0754126  14.1504424  13.9872214  13.9940742  13.4714420  13.5771070
  14.1285897  14.0904190  14.0226111  14.0010827  13.3871607  13.7583749
  14.0512994  14.0428857  13.9972551  14.0567470  13.2590694  12.9975689
  14.1133663  13.9368784  14.0033201  14.0196269  13.9937779  13.9810576
  13.9948995  13.9959603  13.9924828  13.9934345  13.9989793  14.0063380
  12.6600060  13.4258155  13.9918585  14.0117306  14.0122841  14.0435404
  14.1139264  14.0094374  13.9876456  13.9897136  14.0188207  14.0381584
  14.0881086  13.9329718  14.0014898  13.9957987  14.0006736  14.0559336
  13.6006620  14.0899766  13.9930583  13.9781591  14.0146982  13.9995455
  14.0669357  14.0759638  13.2065334  13.3003641  13.2740111  13.4827444
  13.1086719  13.0405335  13.1630427  13.2357464  12.5643249  12.6702864
  12.8408879  13.3790913  12.6746776  12.9324860  12.8105357  13.0093012
  12.9219689  12.7844810  12.6317192  13.2612613  12.9124010  12.6431364
  12.6305645  12.8880071  12.9155569  12.9458885  12.8147961  12.8265539
  12.5784892  12.6309324  12.6981152  12.7157766  12.7171699  12.6110150
 SUMMED SPIN DENSITY          -2.00000000
 TOTAL ATOMIC SPINS  :
   0.0001706   0.0026017   0.0178667  -0.0093678  -0.0088172   0.0072772
  -0.0025804   0.0001807   0.0080847  -0.0064949  -0.0000831  -0.0024071
  -0.0104838  -0.0288048  -0.0207168  -0.0002650  -0.0009800  -0.0002951
  -0.0001169  -0.0052556  -0.0231335  -0.0046206  -0.0000978  -0.0009328
  -0.0011720   0.0004228   0.0011355   0.0000403  -0.0001937  -0.0009405
  -0.0006563   0.0009078  -0.0000053  -0.0022655   0.0001784  -0.0039973
  -0.0163159  -0.0002256  -0.0149192  -0.0004221  -0.0001711  -0.0018375
  -0.0003553   0.0116122  -0.0275466  -0.0000196   0.0004474   0.0026188
  -0.0009023  -0.0005266  -0.0019786  -0.0006557   0.0002565  -0.0004106
  -0.0045725  -0.0008249   0.0002948  -0.0023121  -0.0424741   0.0002378
  -0.0003675  -0.0092753  -0.0188511  -0.0313332   0.0126328  -0.1052982
  -0.0001685  -0.0190088   0.0030049  -0.0181969   0.0031766  -0.5153794
   0.0209064  -0.0322357   0.0310790  -0.0167417   0.0014879   0.0004598
  -0.0190576  -0.0071744  -0.0124826  -0.0039013  -0.0412137   0.0150686
  -0.0103785   0.4727820   0.0040166  -0.0086887   0.0009170  -0.0200016
   0.0138200   0.0156074  -0.0022132  -0.0080604   0.0064923   0.0227077
  -0.0297373  -0.0016457   0.0212569   0.0027379   0.0000826   0.0146708
   0.0000282  -0.0059411  -0.0049991   0.0067888   0.0097901   0.0085201
   0.0193839   0.0067194   0.0026690   0.0013556  -0.0022699   0.0067001
   0.0376891   0.0001322   0.0297640  -0.0039873   0.0055972  -0.0005611
   0.0052229  -0.0063505   0.0087163  -0.0002534   0.0019116   0.4781058
  -0.0007084  -0.0034546   0.0079571  -0.0134652   0.0011228  -0.0075811
  -0.5777400  -0.0105447  -0.0047618   0.0069756   0.0005790  -0.0050052
   0.0005159  -0.0012414  -0.0087035   0.0100239  -0.0098921  -0.0231009
  -0.0035507  -0.0019567  -0.0001428  -0.6546722  -0.0049830  -0.8400536
   0.0534658  -0.0020727  -0.0198179  -0.0164608  -0.0001459  -0.0099931
 TTTTTTTTTTTTTTTTTTTTTTTTTTTTTT MOQGAD      TELAPSE    32565.04 TCPU    29327.68
 WARNING **** GENBUD **** COUL. BIPO BUFFER TOO SMALL - TO AVOID I/O SET BIPOSIZE =     2022225
 TTTTTTTTTTTTTTTTTTTTTTTTTTTTTT SHELLX      TELAPSE    32643.52 TCPU    29404.32
 TTTTTTTTTTTTTTTTTTTTTTTTTTTTTT MONMO3      TELAPSE    32652.98 TCPU    29413.77
 NUMERICALLY INTEGRATED DENSITY    899.0001247663    901.0001266058
 TTTTTTTTTTTTTTTTTTTTTTTTTTTTTT NUMDFT      TELAPSE    32659.38 TCPU    29420.15
 CYC 146 ETOT(AU) -3.144685730033E+04 DETOT -5.56E-08 tst  2.60E-09 PX  3.12E-04
 MODIFIED BROYDEN: MIX%=  90 W0=  1.000000000000E-04 W=  1.973223734465E+02
 TTTTTTTTTTTTTTTTTTTTTTTTTTTTTT FDIK        TELAPSE    32744.94 TCPU    29500.18

    ALPHA      ELECTRONS
 INSULATING STATE
 TOP OF VALENCE BANDS -    BAND    899; K    7; EIG -1.0550433E-01 AU
 TOP OF VALENCE BANDS -    BAND    899; K    1; EIG -1.0729563E-01 AU
 BOTTOM OF VIRTUAL BANDS - BAND    900; K    1; EIG -8.9673670E-02 AU

    BETA       ELECTRONS
 INSULATING STATE
 TOP OF VALENCE BANDS -    BAND    901; K    6; EIG -9.8348630E-02 AU
 TOP OF VALENCE BANDS -    BAND    901; K    1; EIG -8.0556162E-02 AU
 BOTTOM OF VIRTUAL BANDS - BAND    902; K    8; EIG -8.9241065E-02 AU
 BOTTOM OF VIRTUAL BANDS - BAND    902; K    1; EIG -7.8224319E-02 AU
 TTTTTTTTTTTTTTTTTTTTTTTTTTTTTT PDIG        TELAPSE    32748.19 TCPU    29503.42
 CHARGE NORMALIZATION FACTOR   1.00000000
 TOTAL ATOMIC CHARGES:
   8.6495821   8.7382756   8.7394209   8.6089905   8.6485638   8.6647911
   8.7219509   8.6385304   8.6574792   8.7338723   8.6954426   8.7551356
   8.6604149   8.8341005   8.7411240   8.6387980   8.7982384   8.6825212
   8.6498332   8.6848126   8.7626029   8.6960765   8.6601082   8.6519969
   8.5824368   8.6649700   8.6934016   8.5881543   8.6525762   8.6432405
   8.6572769   8.6099129   8.8177651   8.5086286   8.7045175   8.6049679
   8.6713115   8.6234338   8.4744327   8.6760342   8.6240320   8.6156239
   8.7717823   8.6496174   8.8410180   8.5516945   8.6608484   8.6795207
   8.5234667   8.5031561   8.7081269   8.6523890   8.5771713   8.6083128
   8.6352749   8.6172998   8.6594165   8.7496032   8.6190763   8.6018653
   8.5586062   8.6145430   8.6612493   8.7382450  13.7923066  13.7976763
  14.0756556  14.1489912  13.9868669  13.9934277  13.4690676  13.5733406
  14.1293826  14.0887934  14.0227924  14.0004463  13.3873878  13.7582525
  14.0511743  14.0432790  13.9975866  14.0585588  13.2582582  12.9978164
  14.1126861  13.9415461  14.0046880  14.0209721  13.9943416  13.9809180
  13.9960704  13.9958053  13.9925191  13.9945980  13.9992810  14.0075633
  12.6595307  13.4246317  13.9924309  14.0119198  14.0130168  14.0435688
  14.1138833  14.0094796  13.9876541  13.9896328  14.0190473  14.0383087
  14.0878137  13.9316579  14.0025385  13.9967221  14.0011721  14.0567131
  13.6025388  14.0902610  13.9939177  13.9793082  14.0150940  14.0005185
  14.0671486  14.0761624  13.2061035  13.3000267  13.2734608  13.4833762
  13.1083431  13.0402871  13.1622789  13.2353413  12.5643114  12.6704270
  12.8385792  13.3789036  12.6745911  12.9325971  12.8104694  13.0091060
  12.9219539  12.7845064  12.6316961  13.2615208  12.9125887  12.6430946
  12.6304556  12.8879740  12.9155495  12.9453522  12.8149302  12.8267129
  12.5783743  12.6308690  12.6982106  12.7154794  12.7171480  12.6109981
 SUMMED SPIN DENSITY          -2.00000000
 TOTAL ATOMIC SPINS  :
   0.0001431   0.0025916   0.0178966  -0.0091514  -0.0088023   0.0072844
  -0.0025655   0.0001819   0.0081730  -0.0065046  -0.0000926  -0.0024170
  -0.0104821  -0.0288545  -0.0206280  -0.0002649  -0.0009760  -0.0002919
  -0.0001157  -0.0052685  -0.0231717  -0.0046331  -0.0000983  -0.0009350
  -0.0011702   0.0004180   0.0011292   0.0000412  -0.0001968  -0.0009336
  -0.0006582   0.0009101  -0.0000052  -0.0022683   0.0001753  -0.0040112
  -0.0163336  -0.0002265  -0.0149524  -0.0004187  -0.0001725  -0.0018270
  -0.0003547   0.0116205  -0.0275586  -0.0000196   0.0004460   0.0026189
  -0.0009024  -0.0005276  -0.0019776  -0.0006571   0.0002436  -0.0004130
  -0.0044982  -0.0008319   0.0002942  -0.0023094  -0.0426404   0.0002358
  -0.0003665  -0.0092951  -0.0187753  -0.0313129   0.0127227  -0.1051379
  -0.0001886  -0.0190188   0.0029785  -0.0180221   0.0029222  -0.5139060
   0.0207551  -0.0320628   0.0310991  -0.0167071   0.0014088   0.0004529
  -0.0190761  -0.0071820  -0.0124735  -0.0040723  -0.0412834   0.0149392
  -0.0102396   0.4719093   0.0038152  -0.0086990   0.0008716  -0.0199230
   0.0137781   0.0155401  -0.0022089  -0.0080813   0.0064128   0.0227853
  -0.0295776  -0.0016680   0.0211961   0.0028336   0.0000846   0.0147039
   0.0000324  -0.0059516  -0.0050273   0.0066984   0.0098327   0.0085153
   0.0194603   0.0067626   0.0026593   0.0013102  -0.0022794   0.0066606
   0.0378380   0.0001220   0.0297226  -0.0039600   0.0055929  -0.0005692
   0.0051988  -0.0063769   0.0087547  -0.0002557   0.0019160   0.4795956
  -0.0007200  -0.0034603   0.0078994  -0.0136150   0.0010929  -0.0076400
  -0.5791055  -0.0106704  -0.0047619   0.0069279   0.0005708  -0.0050335
   0.0005077  -0.0012360  -0.0087395   0.0100130  -0.0099694  -0.0230918
  -0.0035292  -0.0019576  -0.0001449  -0.6544177  -0.0049786  -0.8400595
   0.0531342  -0.0020730  -0.0198217  -0.0164424  -0.0001523  -0.0099947
 TTTTTTTTTTTTTTTTTTTTTTTTTTTTTT MOQGAD      TELAPSE    32748.35 TCPU    29503.58
 WARNING **** GENBUD **** COUL. BIPO BUFFER TOO SMALL - TO AVOID I/O SET BIPOSIZE =     2022225
 TTTTTTTTTTTTTTTTTTTTTTTTTTTTTT SHELLX      TELAPSE    32826.16 TCPU    29581.26
 +++ ENERGIES IN A.U. +++
 ::: EXT EL-POLE                                  -4.3769943907094E+04
 ::: EXT EL-SPHEROPOLE                             3.1922821886705E+02
 ::: BIELET ZONE E-E                               5.3261539387361E+04
 ::: TOTAL E-E                                     9.8108236991341E+03
 ::: TOTAL E-N + N-E                              -6.4959714966478E+04
 ::: TOTAL N-N                                    -5.2790189768054E+03
 ::: KINETIC ENERGY                                3.1334429251737E+04
 ::: PSEUDO TOTAL   ENERGY                        -2.9093480992412E+04
 ::: VIRIAL COEFFICIENT                            1.0370846559193E+00
 TTTTTTTTTTTTTTTTTTTTTTTTTTTTTT MONMO3      TELAPSE    32835.54 TCPU    29590.61
 NUMERICALLY INTEGRATED DENSITY    899.0001247810    901.0001266224
 TTTTTTTTTTTTTTTTTTTTTTTTTTTTTT NUMDFT      TELAPSE    32842.00 TCPU    29597.06
 CYC 147 ETOT(AU) -3.144685726931E+04 DETOT  3.10E-05 tst  2.98E-07 PX  3.12E-04

 == SCF ENDED - CONVERGENCE ON ENERGY      E(AU) -3.1446857269310E+04 CYCLES 147


 ENERGY EXPRESSION=HARTREE+FOCK EXCH*0.05000+(BECKE  EXCH)*0.95000+LYP    CORR

 FINITE TEMPERATURE DFT CALCULATION 
 TEMPERATURE      (T)    1.000000000000E-13 HARTREE 
 ENERGY           (E)   -3.144685726931E+04
 FREE ENERGY      (F)   -3.144685726931E+04
 ELECTRON ENTROPY (S)    0.000000000000E+00
 (E(T)+F(T))/2    (E0)  -3.144685726931E+04


 TOTAL ENERGY(DFT)(AU)(147) -3.1446857269310E+04 DE 3.1E-05 tester 3.0E-07
 TTTTTTTTTTTTTTTTTTTTTTTTTTTTTT EDFT        TELAPSE    32842.43 TCPU    29597.44
 EIGENVECTORS IN FORTRAN UNIT 10
 TTTTTTTTTTTTTTTTTTTTTTTTTTTTTT END         TELAPSE    32888.98 TCPU    29643.05
 EEEEEEEEEE TERMINATION  DATE 15 01 2015 TIME 13:14:53.6
NODE    0 CPU TIME =     29643.053
    TOTAL CPU TIME =   5694432.396
