--------------------------------------------------------------------------
WARNING: Open MPI will create a shared memory backing file in a
directory that appears to be mounted on a network filesystem.
Creating the shared memory backup file on a network file system, such
as NFS or Lustre is not recommended -- it may cause excessive network
traffic to your file servers and/or cause shared memory traffic in
Open MPI to be much slower than expected.

You may want to check what the typical temporary directory is on your
node.  Possible sources of the location of this temporary directory
include the $TEMPDIR, $TEMP, and $TMP environment variables.

Note, too, that system administrators can set a list of filesystems
where Open MPI is disallowed from creating temporary files by settings
the MCA parameter "orte_no_session_dir".

  Local host: r2i7n10
  Fileame:    /ichec/work/scratch/tmp/584707/openmpi-sessions-emehes@r2i7n10_0/15696/1/shared_mem_pool.r2i7n10

You can set the MCA paramter shmem_mmap_enable_nfs_warning to 0 to
disable this message.
--------------------------------------------------------------------------
         240 PROCESSORS WORKING

         
 *******************************************************************************
 *                                                                             *
 *                                CRYSTAL09                                    *
 *                              public : 2.0                                   *
 *                      December 10th, 2012 - parallel executable              *
 *                                                                             *
 *                                                                             *
 *                                                                             *
 *                              MAIN AUTHORS                                   *
 *                                                                             *
 *    R. DOVESI(1,10), V.R. SAUNDERS(2), C. ROETTI(1,10), R. ORLANDO (1,3),    *
 *  C.M. ZICOVICH-WILSON(1,4), F. PASCALE(5), B. CIVALLERI(1,10), K. DOLL(6),  *
 *       N.M. HARRISON(2,7), I. J. BUSH(2), Ph. D'ARCO(8), M. LLUNELL(9)       *
 *                                                                             *
 * (1) THEORETICAL CHEMISTRY GROUP - UNIVERSITA' DI TORINO - TORINO (ITALY)    *
 *      http://www.crystal.unito.it                                            *
 * (2) COMPUTATIONAL SCIENCE & ENGINEERING DEPARTMENT - STFC DARESBURY LABORATO*Y (UK)
 *     http://www.cse.stfc.ac.uk/cmg/CRYSTAL/                                  *
 * (3) UNIVERSITA' DEL PIEMONTE ORIENTALE - ALESSANDRIA (ITALY)                *
 * (4) UNIVERSIDAD AUTONOMA DEL ESTADO DE MORELOS - CUERNAVACA (MEXICO)        *
 * (5) UNIVERSITE' HENRI POINCARE' - NANCY (FRANCE)                            *
 * (6) MPI FUER FESTKOERPERFORSCHUNG - STUTTGART (GERMANY)                     *
 * (7) IMPERIAL COLLEGE - LONDON (UK)                                          *
 * (8) UNIVERSITE' PIERRE ET MARIE CURIE - PARIS (FRANCE)                      *
 * (9) UNIVERSIDAD DE BARCELONA - BARCELONA (SPAIN)                            *
 *(10) NIS - NANOSTRUCTURED INTERFACES AND SURFACES - TORINO (ITALY)           *
 *     http://www.crystal.unito.it                                             *
 *******************************************************************************
 EEEEEEEEEE STARTING  DATE 26 07 2015 TIME 20:53:56.2
 Created with astools                                                            

 CRYSTAL CALCULATION
 (INPUT ACCORDING TO THE INTERNATIONAL TABLES FOR X-RAY CRYSTALLOGRAPHY)
 CRYSTAL FAMILY                       :  TRICLINIC   
 CRYSTAL CLASS  (GROTH - 1921)        :  TRICLINIC PEDIAL                     

 SPACE GROUP (NONCENTROSYMMETRIC)     :  P 1             

 LATTICE PARAMETERS  (ANGSTROMS AND DEGREES) - CONVENTIONAL CELL
        A           B           C        ALPHA        BETA       GAMMA
    10.59622    10.58937    21.67319    90.00000    90.00000    90.00000


 NUMBER OF IRREDUCIBLE ATOMS IN THE CONVENTIONAL CELL:  160

 INPUT COORDINATES

 ATOM AT. N.              COORDINATES
   1   8     8.547430000000E-01  7.488750000000E-01  6.054990000000E-01
   2   8     5.043330000000E-01  2.865300000000E-01  5.979130000000E-01
   3   8     8.215170000000E-01  7.830540000000E-01  4.873180000000E-01
   4   8     1.770820000000E-01  1.749390000000E-01  5.354580000000E-01
   5   8     2.987950000000E-01  9.758130000000E-01  6.202840000000E-01
   6   8     2.058510000000E-01  6.087620000000E-01  6.325400000000E-01
   7   8     4.949060000000E-01  7.339960000000E-01  5.747190000000E-01
   8   8     7.347770000000E-01  5.503000000000E-03  5.813900000000E-01
   9   8     6.882240000000E-01  6.064110000000E-01  5.282500000000E-01
  10   8     2.360690000000E-01  7.355770000000E-01  5.359810000000E-01
  11   8     1.691000000000E-03  9.648170000000E-01  5.290690000000E-01
  12   8     4.812340000000E-01  8.419600000000E-02  5.345570000000E-01
  13   8     6.785030000000E-01  4.421830000000E-01  6.561500000000E-01
  14   8     8.121150000000E-01  4.084380000000E-01  5.674730000000E-01
  15   8     4.415740000000E-01  5.107330000000E-01  6.496630000000E-01
  16   8     2.772250000000E-01  4.296620000000E-01  5.570100000000E-01
  17   8     5.065800000000E-02  6.104550000000E-01  5.170140000000E-01
  18   8     7.545220000000E-01  9.220110000000E-01  9.362620000000E-01
  19   8     7.862820000000E-01  1.699760000000E-01  8.806520000000E-01
  20   8     5.347180000000E-01  8.212250000000E-01  8.835600000000E-01
  21   8     5.617700000000E-02  2.280070000000E-01  9.035250000000E-01
  22   8     8.647420000000E-01  8.718330000000E-01  7.179910000000E-01
  23   8     5.696910000000E-01  6.964440000000E-01 -4.873000000000E-03
  24   8     8.123560000000E-01  6.025470000000E-01  7.675850000000E-01
  25   8     4.526620000000E-01  4.808570000000E-01  7.965000000000E-03
  26   8     5.969070000000E-01  9.203190000000E-01  6.617410000000E-01
  27   8     3.084880000000E-01  3.613130000000E-01  9.301160000000E-01
  28   8     2.836400000000E-02  5.354000000000E-03  6.597300000000E-01
  29   8     2.128950000000E-01  6.899500000000E-01  8.157650000000E-01
  30   8     7.223030000000E-01  1.978490000000E-01  6.142000000000E-03
  31   8     5.346570000000E-01  5.033900000000E-02  9.575030000000E-01
  32   8     9.359280000000E-01  9.967420000000E-01  2.153000000000E-03
  33   8     9.695890000000E-01  5.260970000000E-01  6.267110000000E-01
  34   8     6.596750000000E-01  3.826210000000E-01  7.775140000000E-01
  35   8     6.324610000000E-01  6.931300000000E-01  6.882430000000E-01
  36   8     9.384610000000E-01  4.162260000000E-01  5.159000000000E-03
  37   8     7.677300000000E-02  5.600290000000E-01  9.260450000000E-01
  38   8     2.425240000000E-01  9.365450000000E-01  7.507810000000E-01
  39   8     2.599620000000E-01  1.900470000000E-01  7.158170000000E-01
  40   8     9.739030000000E-01  8.007960000000E-01  8.191230000000E-01
  41   8     1.006410000000E-01  4.951290000000E-01  7.932050000000E-01
  42   8     1.367880000000E-01  5.631450000000E-01  4.175100000000E-02
  43   8     7.687710000000E-01  1.732960000000E-01  6.727250000000E-01
  44   8     1.137210000000E-01  9.027140000000E-01  9.046760000000E-01
  45   8     5.592330000000E-01  6.244720000000E-01  8.069410000000E-01
  46   8     2.714070000000E-01  1.977230000000E-01  8.383050000000E-01
  47   8     1.007490000000E+00  9.479900000000E-02  7.694330000000E-01
  48   8     5.076720000000E-01  1.727150000000E-01  8.319780000000E-01
  49   8     7.375700000000E-01  6.332360000000E-01  9.018400000000E-01
  50   8     2.404900000000E-02  2.771160000000E-01  6.355590000000E-01
  51   8     3.980550000000E-01  4.335710000000E-01  7.669670000000E-01
  52   8     9.136850000000E-01  3.364720000000E-01  7.362830000000E-01
  53   8     3.653330000000E-01  7.236980000000E-01  7.273790000000E-01
  54   8     9.006260000000E-01  4.077790000000E-01  8.531270000000E-01
  55   8     3.668740000000E-01  6.633410000000E-01  9.010190000000E-01
  56   8     2.912670000000E-01  8.239110000000E-01  9.790030000000E-01
  57   8     4.918840000000E-01  9.250230000000E-01  7.696180000000E-01
  58   8     2.076040000000E-01  4.079480000000E-01  6.893540000000E-01
  59   8     7.398100000000E-02  7.337840000000E-01  7.075100000000E-01
  60   8     4.868330000000E-01  1.577620000000E-01  6.956530000000E-01
  61   8     7.188390000000E-01  9.601200000000E-01  8.156140000000E-01
  62   8     5.626380000000E-01  4.422430000000E-01  8.890330000000E-01
  63   8     1.499890000000E-01  1.194620000000E-01 -7.968000000000E-03
  64   8     3.558770000000E-01  9.723900000000E-01  8.616450000000E-01
  65  14     6.156000000000E-02  6.043700000000E-02  4.747700000000E-02
  66  14     3.433570000000E-01  3.666740000000E-01  7.728000000000E-03
  67  14     1.969870000000E-01  4.401240000000E-01  8.103800000000E-02
  68  14     4.267350000000E-01  2.077160000000E-01  7.738000000000E-02
  69  14     6.999000000000E-02  3.308140000000E-01  1.541000000000E-01
  70  14     3.081310000000E-01  7.930600000000E-02  1.499360000000E-01
  71  14     1.866660000000E-01  1.981750000000E-01  2.182140000000E-01
  72  14     4.325980000000E-01  4.329900000000E-01  2.226740000000E-01
  73  14     6.602000000000E-03  5.573250000000E-01 -1.510000000000E-04
  74  14     3.180860000000E-01  8.395030000000E-01  5.944500000000E-02
  75  14     1.634200000000E-01  9.306210000000E-01  1.129260000000E-01
  76  14     4.167320000000E-01  6.876690000000E-01  1.162730000000E-01
  77  14     2.139600000000E-02  7.866730000000E-01  1.505080000000E-01
  78  14     2.954420000000E-01  5.409360000000E-01  1.628050000000E-01
  79  14     1.686710000000E-01  6.835120000000E-01  2.136100000000E-01
  80  14     4.302240000000E-01  9.538770000000E-01  2.166860000000E-01
  81  14     5.911440000000E-01  1.090210000000E-01  2.566900000000E-02
  82  14     8.233290000000E-01  3.183150000000E-01  3.845300000000E-02
  83  14     6.892160000000E-01  4.497350000000E-01  9.605700000000E-02
  84  14     9.354350000000E-01  1.929150000000E-01  1.059130000000E-01
  85  14     5.509170000000E-01  3.175870000000E-01  1.515060000000E-01
  86  14     7.938410000000E-01  5.481300000000E-02  1.532110000000E-01
  87  14     6.718690000000E-01  1.853910000000E-01  2.148240000000E-01
  88  14     9.341010000000E-01  4.491610000000E-01  2.152060000000E-01
  89  14     5.401370000000E-01  5.808550000000E-01  4.959300000000E-02
  90  14     8.221840000000E-01  8.704770000000E-01  4.141000000000E-03
  91  14     6.744180000000E-01  9.400390000000E-01  8.010000000000E-02
  92  14     9.004610000000E-01  7.018040000000E-01  6.546000000000E-02
  93  14     5.603340000000E-01  8.291700000000E-01  1.562230000000E-01
  94  14     8.139090000000E-01  5.851280000000E-01  1.532590000000E-01
  95  14     6.804460000000E-01  7.002290000000E-01  2.190010000000E-01
  96  14     9.219140000000E-01  9.315370000000E-01  2.156920000000E-01
  97  14     5.501100000000E-02  6.154300000000E-02  2.751490000000E-01
  98  14     3.080170000000E-01  3.138390000000E-01  2.863340000000E-01
  99  14     5.603500000000E-02  5.662260000000E-01  2.816360000000E-01
 100  14     2.999430000000E-01  8.155320000000E-01  2.737200000000E-01
 101  14     5.515430000000E-01  7.018500000000E-02  2.847400000000E-01
 102  14     8.068880000000E-01  3.106410000000E-01  2.727230000000E-01
 103  14     5.476310000000E-01  5.760430000000E-01  2.797740000000E-01
 104  14     7.998390000000E-01  8.230100000000E-01  2.851600000000E-01
 105  14     1.804780000000E-01  4.438050000000E-01  3.445970000000E-01
 106  14     4.319720000000E-01  1.942910000000E-01  3.499900000000E-01
 107  14     4.303800000000E-02  3.163150000000E-01  3.980540000000E-01
 108  14     3.113150000000E-01  6.005200000000E-02  4.082670000000E-01
 109  14     1.816290000000E-01  2.019370000000E-01  4.550710000000E-01
 110  14     4.407900000000E-01  4.376960000000E-01  4.699550000000E-01
 111  14     1.860340000000E-01  9.429640000000E-01  3.406010000000E-01
 112  14     4.197890000000E-01  6.984440000000E-01  3.468140000000E-01
 113  14     5.994800000000E-02  8.193370000000E-01  4.041570000000E-01
 114  14     3.017460000000E-01  5.626540000000E-01  4.123650000000E-01
 115  14     1.615830000000E-01  6.824480000000E-01  4.726520000000E-01
 116  14     4.147840000000E-01  9.507720000000E-01  4.885630000000E-01
 117  14     6.760700000000E-01  4.386430000000E-01  3.311470000000E-01
 118  14     9.234170000000E-01  1.787850000000E-01  3.397140000000E-01
 119  14     5.708650000000E-01  3.233300000000E-01  4.044270000000E-01
 120  14     8.010420000000E-01  6.893300000000E-02  4.150630000000E-01
 121  14     7.241960000000E-01  2.454650000000E-01  4.712660000000E-01
 122  14     8.891220000000E-01  4.042670000000E-01  4.565970000000E-01
 123  14     6.742780000000E-01  9.442770000000E-01  3.499510000000E-01
 124  14     9.351020000000E-01  6.965470000000E-01  3.406340000000E-01
 125  14     5.413040000000E-01  8.297720000000E-01  4.149180000000E-01
 126  14     8.066130000000E-01  5.566180000000E-01  3.912920000000E-01
 127  14     6.979510000000E-01  6.925360000000E-01  4.564750000000E-01
 128  14     9.159750000000E-01  9.134200000000E-01  4.696310000000E-01
 129 272     8.379270000000E-01  7.082000000000E-03  6.547760000000E-01
 130 272     8.771970000000E-01  5.803040000000E-01  5.468440000000E-01
 131 272     6.599750000000E-01  7.684230000000E-01  6.084930000000E-01
 132 272     5.470400000000E-02  7.241340000000E-01  6.116370000000E-01
 133 272     3.603450000000E-01  2.435790000000E-01  5.365250000000E-01
 134 272     1.290370000000E-01  4.273890000000E-01  6.100900000000E-01
 135 272     3.591540000000E-01  6.085990000000E-01  5.733570000000E-01
 136 272     8.400610000000E-01  3.437670000000E-01  6.521310000000E-01
 137 272     1.360700000000E-01  2.014700000000E-02  5.875110000000E-01
 138 272     6.254710000000E-01  4.103260000000E-01  5.599610000000E-01
 139 272     5.861920000000E-01  1.094780000000E-01  6.133420000000E-01
 140 272     9.070570000000E-01  1.569340000000E-01  9.454950000000E-01
 141 272     5.542830000000E-01  6.264560000000E-01  9.065290000000E-01
 142 272     7.437900000000E-01  5.083480000000E-01  8.377000000000E-01
 143 272     1.011040000000E-01  3.963710000000E-01  8.731690000000E-01
 144 272     1.975780000000E-01  8.076100000000E-02  9.034550000000E-01
 145 272     1.937080000000E-01  7.305780000000E-01  9.110080000000E-01
 146 272     5.667090000000E-01  5.194090000000E-01  7.238970000000E-01
 147 272     4.778950000000E-01  8.640740000000E-01  9.749640000000E-01
 148 272     4.219820000000E-01  3.418650000000E-01  8.508730000000E-01
 149 272     9.249080000000E-01  9.035140000000E-01  8.924220000000E-01
 150 272     8.133300000000E-02  2.375970000000E-01  7.262610000000E-01
 151 272     5.168700000000E-02  9.163740000000E-01  7.506100000000E-01
 152 272     2.447110000000E-01  5.763160000000E-01  7.351370000000E-01
 153 272     3.688960000000E-01  8.977600000000E-02  7.734810000000E-01
 154 272     9.890430000000E-01  6.370060000000E-01  7.745390000000E-01
 155 272     8.044620000000E-01  2.684390000000E-01  8.047050000000E-01
 156 272     5.764200000000E-01  1.006205000000E+00  8.683950000000E-01
 157 272     3.900660000000E-01  8.933950000000E-01  6.852330000000E-01
 158 272     6.870080000000E-01  8.551470000000E-01  7.443890000000E-01
 159 272     3.888410000000E-01  3.159820000000E-01  6.725300000000E-01
 160 272     3.828000000000E-01  7.876320000000E-01  8.209880000000E-01

 *******************************************************************************

 << INFORMATION >>: FROM NOW ON, ALL COORDINATES REFER TO THE PRIMITIVE CELL

 *******************************************************************************

 LATTICE PARAMETERS  (ANGSTROMS AND DEGREES) - PRIMITIVE CELL
       A          B          C         ALPHA     BETA     GAMMA        VOLUME
   10.59622   10.58937   21.67319    90.00000  90.00000  90.00000   2431.891491

 COORDINATES OF THE EQUIVALENT ATOMS (FRACTIONAL UNITS)

 N. ATOM EQUIV AT. N.          X                  Y                  Z

   1   1   1    8 O    -1.45257000000E-01 -2.51125000000E-01 -3.94501000000E-01

   2   2   1    8 O    -4.95667000000E-01  2.86530000000E-01 -4.02087000000E-01

   3   3   1    8 O    -1.78483000000E-01 -2.16946000000E-01  4.87318000000E-01

   4   4   1    8 O     1.77082000000E-01  1.74939000000E-01 -4.64542000000E-01

   5   5   1    8 O     2.98795000000E-01 -2.41870000000E-02 -3.79716000000E-01

   6   6   1    8 O     2.05851000000E-01 -3.91238000000E-01 -3.67460000000E-01

   7   7   1    8 O     4.94906000000E-01 -2.66004000000E-01 -4.25281000000E-01

   8   8   1    8 O    -2.65223000000E-01  5.50300000000E-03 -4.18610000000E-01

   9   9   1    8 O    -3.11776000000E-01 -3.93589000000E-01 -4.71750000000E-01

  10  10   1    8 O     2.36069000000E-01 -2.64423000000E-01 -4.64019000000E-01

  11  11   1    8 O     1.69100000000E-03 -3.51830000000E-02 -4.70931000000E-01

  12  12   1    8 O     4.81234000000E-01  8.41960000000E-02 -4.65443000000E-01

  13  13   1    8 O    -3.21497000000E-01  4.42183000000E-01 -3.43850000000E-01

  14  14   1    8 O    -1.87885000000E-01  4.08438000000E-01 -4.32527000000E-01

  15  15   1    8 O     4.41574000000E-01 -4.89267000000E-01 -3.50337000000E-01

  16  16   1    8 O     2.77225000000E-01  4.29662000000E-01 -4.42990000000E-01

  17  17   1    8 O     5.06580000000E-02 -3.89545000000E-01 -4.82986000000E-01

  18  18   1    8 O    -2.45478000000E-01 -7.79890000000E-02 -6.37380000000E-02

  19  19   1    8 O    -2.13718000000E-01  1.69976000000E-01 -1.19348000000E-01

  20  20   1    8 O    -4.65282000000E-01 -1.78775000000E-01 -1.16440000000E-01

  21  21   1    8 O     5.61770000000E-02  2.28007000000E-01 -9.64750000000E-02

  22  22   1    8 O    -1.35258000000E-01 -1.28167000000E-01 -2.82009000000E-01

  23  23   1    8 O    -4.30309000000E-01 -3.03556000000E-01 -4.87300000000E-03

  24  24   1    8 O    -1.87644000000E-01 -3.97453000000E-01 -2.32415000000E-01

  25  25   1    8 O     4.52662000000E-01  4.80857000000E-01  7.96500000000E-03

  26  26   1    8 O    -4.03093000000E-01 -7.96810000000E-02 -3.38259000000E-01

  27  27   1    8 O     3.08488000000E-01  3.61313000000E-01 -6.98840000000E-02

  28  28   1    8 O     2.83640000000E-02  5.35400000000E-03 -3.40270000000E-01

  29  29   1    8 O     2.12895000000E-01 -3.10050000000E-01 -1.84235000000E-01

  30  30   1    8 O    -2.77697000000E-01  1.97849000000E-01  6.14200000000E-03

  31  31   1    8 O    -4.65343000000E-01  5.03390000000E-02 -4.24970000000E-02

  32  32   1    8 O    -6.40720000000E-02 -3.25800000000E-03  2.15300000000E-03

  33  33   1    8 O    -3.04110000000E-02 -4.73903000000E-01 -3.73289000000E-01

  34  34   1    8 O    -3.40325000000E-01  3.82621000000E-01 -2.22486000000E-01

  35  35   1    8 O    -3.67539000000E-01 -3.06870000000E-01 -3.11757000000E-01

  36  36   1    8 O    -6.15390000000E-02  4.16226000000E-01  5.15900000000E-03

  37  37   1    8 O     7.67730000000E-02 -4.39971000000E-01 -7.39550000000E-02

  38  38   1    8 O     2.42524000000E-01 -6.34550000000E-02 -2.49219000000E-01

  39  39   1    8 O     2.59962000000E-01  1.90047000000E-01 -2.84183000000E-01

  40  40   1    8 O    -2.60970000000E-02 -1.99204000000E-01 -1.80877000000E-01

  41  41   1    8 O     1.00641000000E-01  4.95129000000E-01 -2.06795000000E-01

  42  42   1    8 O     1.36788000000E-01 -4.36855000000E-01  4.17510000000E-02

  43  43   1    8 O    -2.31229000000E-01  1.73296000000E-01 -3.27275000000E-01

  44  44   1    8 O     1.13721000000E-01 -9.72860000000E-02 -9.53240000000E-02

  45  45   1    8 O    -4.40767000000E-01 -3.75528000000E-01 -1.93059000000E-01

  46  46   1    8 O     2.71407000000E-01  1.97723000000E-01 -1.61695000000E-01

  47  47   1    8 O     7.49000000000E-03  9.47990000000E-02 -2.30567000000E-01

  48  48   1    8 O    -4.92328000000E-01  1.72715000000E-01 -1.68022000000E-01

  49  49   1    8 O    -2.62430000000E-01 -3.66764000000E-01 -9.81600000000E-02

  50  50   1    8 O     2.40490000000E-02  2.77116000000E-01 -3.64441000000E-01

  51  51   1    8 O     3.98055000000E-01  4.33571000000E-01 -2.33033000000E-01

  52  52   1    8 O    -8.63150000000E-02  3.36472000000E-01 -2.63717000000E-01

  53  53   1    8 O     3.65333000000E-01 -2.76302000000E-01 -2.72621000000E-01

  54  54   1    8 O    -9.93740000000E-02  4.07779000000E-01 -1.46873000000E-01

  55  55   1    8 O     3.66874000000E-01 -3.36659000000E-01 -9.89810000000E-02

  56  56   1    8 O     2.91267000000E-01 -1.76089000000E-01 -2.09970000000E-02

  57  57   1    8 O     4.91884000000E-01 -7.49770000000E-02 -2.30382000000E-01

  58  58   1    8 O     2.07604000000E-01  4.07948000000E-01 -3.10646000000E-01

  59  59   1    8 O     7.39810000000E-02 -2.66216000000E-01 -2.92490000000E-01

  60  60   1    8 O     4.86833000000E-01  1.57762000000E-01 -3.04347000000E-01

  61  61   1    8 O    -2.81161000000E-01 -3.98800000000E-02 -1.84386000000E-01

  62  62   1    8 O    -4.37362000000E-01  4.42243000000E-01 -1.10967000000E-01

  63  63   1    8 O     1.49989000000E-01  1.19462000000E-01 -7.96800000000E-03

  64  64   1    8 O     3.55877000000E-01 -2.76100000000E-02 -1.38355000000E-01

  65  65   1   14 SI    6.15600000000E-02  6.04370000000E-02  4.74770000000E-02

  66  66   1   14 SI    3.43357000000E-01  3.66674000000E-01  7.72800000000E-03

  67  67   1   14 SI    1.96987000000E-01  4.40124000000E-01  8.10380000000E-02

  68  68   1   14 SI    4.26735000000E-01  2.07716000000E-01  7.73800000000E-02

  69  69   1   14 SI    6.99900000000E-02  3.30814000000E-01  1.54100000000E-01

  70  70   1   14 SI    3.08131000000E-01  7.93060000000E-02  1.49936000000E-01

  71  71   1   14 SI    1.86666000000E-01  1.98175000000E-01  2.18214000000E-01

  72  72   1   14 SI    4.32598000000E-01  4.32990000000E-01  2.22674000000E-01

  73  73   1   14 SI    6.60200000000E-03 -4.42675000000E-01 -1.51000000000E-04

  74  74   1   14 SI    3.18086000000E-01 -1.60497000000E-01  5.94450000000E-02

  75  75   1   14 SI    1.63420000000E-01 -6.93790000000E-02  1.12926000000E-01

  76  76   1   14 SI    4.16732000000E-01 -3.12331000000E-01  1.16273000000E-01

  77  77   1   14 SI    2.13960000000E-02 -2.13327000000E-01  1.50508000000E-01

  78  78   1   14 SI    2.95442000000E-01 -4.59064000000E-01  1.62805000000E-01

  79  79   1   14 SI    1.68671000000E-01 -3.16488000000E-01  2.13610000000E-01

  80  80   1   14 SI    4.30224000000E-01 -4.61230000000E-02  2.16686000000E-01

  81  81   1   14 SI   -4.08856000000E-01  1.09021000000E-01  2.56690000000E-02

  82  82   1   14 SI   -1.76671000000E-01  3.18315000000E-01  3.84530000000E-02

  83  83   1   14 SI   -3.10784000000E-01  4.49735000000E-01  9.60570000000E-02

  84  84   1   14 SI   -6.45650000000E-02  1.92915000000E-01  1.05913000000E-01

  85  85   1   14 SI   -4.49083000000E-01  3.17587000000E-01  1.51506000000E-01

  86  86   1   14 SI   -2.06159000000E-01  5.48130000000E-02  1.53211000000E-01

  87  87   1   14 SI   -3.28131000000E-01  1.85391000000E-01  2.14824000000E-01

  88  88   1   14 SI   -6.58990000000E-02  4.49161000000E-01  2.15206000000E-01

  89  89   1   14 SI   -4.59863000000E-01 -4.19145000000E-01  4.95930000000E-02

  90  90   1   14 SI   -1.77816000000E-01 -1.29523000000E-01  4.14100000000E-03

  91  91   1   14 SI   -3.25582000000E-01 -5.99610000000E-02  8.01000000000E-02

  92  92   1   14 SI   -9.95390000000E-02 -2.98196000000E-01  6.54600000000E-02

  93  93   1   14 SI   -4.39666000000E-01 -1.70830000000E-01  1.56223000000E-01

  94  94   1   14 SI   -1.86091000000E-01 -4.14872000000E-01  1.53259000000E-01

  95  95   1   14 SI   -3.19554000000E-01 -2.99771000000E-01  2.19001000000E-01

  96  96   1   14 SI   -7.80860000000E-02 -6.84630000000E-02  2.15692000000E-01

  97  97   1   14 SI    5.50110000000E-02  6.15430000000E-02  2.75149000000E-01

  98  98   1   14 SI    3.08017000000E-01  3.13839000000E-01  2.86334000000E-01

  99  99   1   14 SI    5.60350000000E-02 -4.33774000000E-01  2.81636000000E-01

 100 100   1   14 SI    2.99943000000E-01 -1.84468000000E-01  2.73720000000E-01

 101 101   1   14 SI   -4.48457000000E-01  7.01850000000E-02  2.84740000000E-01

 102 102   1   14 SI   -1.93112000000E-01  3.10641000000E-01  2.72723000000E-01

 103 103   1   14 SI   -4.52369000000E-01 -4.23957000000E-01  2.79774000000E-01

 104 104   1   14 SI   -2.00161000000E-01 -1.76990000000E-01  2.85160000000E-01

 105 105   1   14 SI    1.80478000000E-01  4.43805000000E-01  3.44597000000E-01

 106 106   1   14 SI    4.31972000000E-01  1.94291000000E-01  3.49990000000E-01

 107 107   1   14 SI    4.30380000000E-02  3.16315000000E-01  3.98054000000E-01

 108 108   1   14 SI    3.11315000000E-01  6.00520000000E-02  4.08267000000E-01

 109 109   1   14 SI    1.81629000000E-01  2.01937000000E-01  4.55071000000E-01

 110 110   1   14 SI    4.40790000000E-01  4.37696000000E-01  4.69955000000E-01

 111 111   1   14 SI    1.86034000000E-01 -5.70360000000E-02  3.40601000000E-01

 112 112   1   14 SI    4.19789000000E-01 -3.01556000000E-01  3.46814000000E-01

 113 113   1   14 SI    5.99480000000E-02 -1.80663000000E-01  4.04157000000E-01

 114 114   1   14 SI    3.01746000000E-01 -4.37346000000E-01  4.12365000000E-01

 115 115   1   14 SI    1.61583000000E-01 -3.17552000000E-01  4.72652000000E-01

 116 116   1   14 SI    4.14784000000E-01 -4.92280000000E-02  4.88563000000E-01

 117 117   1   14 SI   -3.23930000000E-01  4.38643000000E-01  3.31147000000E-01

 118 118   1   14 SI   -7.65830000000E-02  1.78785000000E-01  3.39714000000E-01

 119 119   1   14 SI   -4.29135000000E-01  3.23330000000E-01  4.04427000000E-01

 120 120   1   14 SI   -1.98958000000E-01  6.89330000000E-02  4.15063000000E-01

 121 121   1   14 SI   -2.75804000000E-01  2.45465000000E-01  4.71266000000E-01

 122 122   1   14 SI   -1.10878000000E-01  4.04267000000E-01  4.56597000000E-01

 123 123   1   14 SI   -3.25722000000E-01 -5.57230000000E-02  3.49951000000E-01

 124 124   1   14 SI   -6.48980000000E-02 -3.03453000000E-01  3.40634000000E-01

 125 125   1   14 SI   -4.58696000000E-01 -1.70228000000E-01  4.14918000000E-01

 126 126   1   14 SI   -1.93387000000E-01 -4.43382000000E-01  3.91292000000E-01

 127 127   1   14 SI   -3.02049000000E-01 -3.07464000000E-01  4.56475000000E-01

 128 128   1   14 SI   -8.40250000000E-02 -8.65800000000E-02  4.69631000000E-01

 129 129   1  272 HF   -1.62073000000E-01  7.08200000000E-03 -3.45224000000E-01

 130 130   1  272 HF   -1.22803000000E-01 -4.19696000000E-01 -4.53156000000E-01

 131 131   1  272 HF   -3.40025000000E-01 -2.31577000000E-01 -3.91507000000E-01

 132 132   1  272 HF    5.47040000000E-02 -2.75866000000E-01 -3.88363000000E-01

 133 133   1  272 HF    3.60345000000E-01  2.43579000000E-01 -4.63475000000E-01

 134 134   1  272 HF    1.29037000000E-01  4.27389000000E-01 -3.89910000000E-01

 135 135   1  272 HF    3.59154000000E-01 -3.91401000000E-01 -4.26643000000E-01

 136 136   1  272 HF   -1.59939000000E-01  3.43767000000E-01 -3.47869000000E-01

 137 137   1  272 HF    1.36070000000E-01  2.01470000000E-02 -4.12489000000E-01

 138 138   1  272 HF   -3.74529000000E-01  4.10326000000E-01 -4.40039000000E-01

 139 139   1  272 HF   -4.13808000000E-01  1.09478000000E-01 -3.86658000000E-01

 140 140   1  272 HF   -9.29430000000E-02  1.56934000000E-01 -5.45050000000E-02

 141 141   1  272 HF   -4.45717000000E-01 -3.73544000000E-01 -9.34710000000E-02

 142 142   1  272 HF   -2.56210000000E-01 -4.91652000000E-01 -1.62300000000E-01

 143 143   1  272 HF    1.01104000000E-01  3.96371000000E-01 -1.26831000000E-01

 144 144   1  272 HF    1.97578000000E-01  8.07610000000E-02 -9.65450000000E-02

 145 145   1  272 HF    1.93708000000E-01 -2.69422000000E-01 -8.89920000000E-02

 146 146   1  272 HF   -4.33291000000E-01 -4.80591000000E-01 -2.76103000000E-01

 147 147   1  272 HF    4.77895000000E-01 -1.35926000000E-01 -2.50360000000E-02

 148 148   1  272 HF    4.21982000000E-01  3.41865000000E-01 -1.49127000000E-01

 149 149   1  272 HF   -7.50920000000E-02 -9.64860000000E-02 -1.07578000000E-01

 150 150   1  272 HF    8.13330000000E-02  2.37597000000E-01 -2.73739000000E-01

 151 151   1  272 HF    5.16870000000E-02 -8.36260000000E-02 -2.49390000000E-01

 152 152   1  272 HF    2.44711000000E-01 -4.23684000000E-01 -2.64863000000E-01

 153 153   1  272 HF    3.68896000000E-01  8.97760000000E-02 -2.26519000000E-01

 154 154   1  272 HF   -1.09570000000E-02 -3.62994000000E-01 -2.25461000000E-01

 155 155   1  272 HF   -1.95538000000E-01  2.68439000000E-01 -1.95295000000E-01

 156 156   1  272 HF   -4.23580000000E-01  6.20500000000E-03 -1.31605000000E-01

 157 157   1  272 HF    3.90066000000E-01 -1.06605000000E-01 -3.14767000000E-01

 158 158   1  272 HF   -3.12992000000E-01 -1.44853000000E-01 -2.55611000000E-01

 159 159   1  272 HF    3.88841000000E-01  3.15982000000E-01 -3.27470000000E-01

 160 160   1  272 HF    3.82800000000E-01 -2.12368000000E-01 -1.79012000000E-01

 NUMBER OF SYMMETRY OPERATORS         :    1
 *******************************************************************************
 * GEOMETRY EDITING - INPUT COORDINATES ARE GIVEN IN ANGSTROM         
 *******************************************************************************

 GCALCO - MAX INDICES DIRECT LATTICE VECTOR    18    19     9
 NO.OF VECTORS CREATED 6999 STARS 1062 RMAX   301.31372 BOHR

 GEOMETRY FOR WAVE FUNCTION - DIMENSIONALITY OF THE SYSTEM    3
 (NON PERIODIC DIRECTION: LATTICE PARAMETER FORMALLY SET TO 500)
 *******************************************************************************
 LATTICE PARAMETERS (ANGSTROMS AND DEGREES) - BOHR = 0.5291772083 ANGSTROM
 PRIMITIVE CELL - CENTRING CODE 1/0 VOLUME=  2431.891491 - DENSITY  5.853 g/cm^3
         A              B              C           ALPHA      BETA       GAMMA 
    10.59622100    10.58937400    21.67319300    90.000000  90.000000  90.000000
 *******************************************************************************
 ATOMS IN THE ASYMMETRIC UNIT  160 - ATOMS IN THE UNIT CELL:  160
     ATOM              X/A                 Y/B                 Z/C    
 *******************************************************************************
   1 T   8 O    -1.452570000000E-01 -2.511250000000E-01 -3.945010000000E-01
   2 T   8 O    -4.956670000000E-01  2.865300000000E-01 -4.020870000000E-01
   3 T   8 O    -1.784830000000E-01 -2.169460000000E-01  4.873180000000E-01
   4 T   8 O     1.770820000000E-01  1.749390000000E-01 -4.645420000000E-01
   5 T   8 O     2.987950000000E-01 -2.418700000000E-02 -3.797160000000E-01
   6 T   8 O     2.058510000000E-01 -3.912380000000E-01 -3.674600000000E-01
   7 T   8 O     4.949060000000E-01 -2.660040000000E-01 -4.252810000000E-01
   8 T   8 O    -2.652230000000E-01  5.503000000000E-03 -4.186100000000E-01
   9 T   8 O    -3.117760000000E-01 -3.935890000000E-01 -4.717500000000E-01
  10 T   8 O     2.360690000000E-01 -2.644230000000E-01 -4.640190000000E-01
  11 T   8 O     1.691000000000E-03 -3.518300000000E-02 -4.709310000000E-01
  12 T   8 O     4.812340000000E-01  8.419600000000E-02 -4.654430000000E-01
  13 T   8 O    -3.214970000000E-01  4.421830000000E-01 -3.438500000000E-01
  14 T   8 O    -1.878850000000E-01  4.084380000000E-01 -4.325270000000E-01
  15 T   8 O     4.415740000000E-01 -4.892670000000E-01 -3.503370000000E-01
  16 T   8 O     2.772250000000E-01  4.296620000000E-01 -4.429900000000E-01
  17 T   8 O     5.065800000000E-02 -3.895450000000E-01 -4.829860000000E-01
  18 T   8 O    -2.454780000000E-01 -7.798900000000E-02 -6.373800000000E-02
  19 T   8 O    -2.137180000000E-01  1.699760000000E-01 -1.193480000000E-01
  20 T   8 O    -4.652820000000E-01 -1.787750000000E-01 -1.164400000000E-01
  21 T   8 O     5.617700000000E-02  2.280070000000E-01 -9.647500000000E-02
  22 T   8 O    -1.352580000000E-01 -1.281670000000E-01 -2.820090000000E-01
  23 T   8 O    -4.303090000000E-01 -3.035560000000E-01 -4.873000000000E-03
  24 T   8 O    -1.876440000000E-01 -3.974530000000E-01 -2.324150000000E-01
  25 T   8 O     4.526620000000E-01  4.808570000000E-01  7.965000000000E-03
  26 T   8 O    -4.030930000000E-01 -7.968100000000E-02 -3.382590000000E-01
  27 T   8 O     3.084880000000E-01  3.613130000000E-01 -6.988400000000E-02
  28 T   8 O     2.836400000000E-02  5.354000000000E-03 -3.402700000000E-01
  29 T   8 O     2.128950000000E-01 -3.100500000000E-01 -1.842350000000E-01
  30 T   8 O    -2.776970000000E-01  1.978490000000E-01  6.142000000000E-03
  31 T   8 O    -4.653430000000E-01  5.033900000000E-02 -4.249700000000E-02
  32 T   8 O    -6.407200000000E-02 -3.258000000000E-03  2.153000000000E-03
  33 T   8 O    -3.041100000000E-02 -4.739030000000E-01 -3.732890000000E-01
  34 T   8 O    -3.403250000000E-01  3.826210000000E-01 -2.224860000000E-01
  35 T   8 O    -3.675390000000E-01 -3.068700000000E-01 -3.117570000000E-01
  36 T   8 O    -6.153900000000E-02  4.162260000000E-01  5.159000000000E-03
  37 T   8 O     7.677300000000E-02 -4.399710000000E-01 -7.395500000000E-02
  38 T   8 O     2.425240000000E-01 -6.345500000000E-02 -2.492190000000E-01
  39 T   8 O     2.599620000000E-01  1.900470000000E-01 -2.841830000000E-01
  40 T   8 O    -2.609700000000E-02 -1.992040000000E-01 -1.808770000000E-01
  41 T   8 O     1.006410000000E-01  4.951290000000E-01 -2.067950000000E-01
  42 T   8 O     1.367880000000E-01 -4.368550000000E-01  4.175100000000E-02
  43 T   8 O    -2.312290000000E-01  1.732960000000E-01 -3.272750000000E-01
  44 T   8 O     1.137210000000E-01 -9.728600000000E-02 -9.532400000000E-02
  45 T   8 O    -4.407670000000E-01 -3.755280000000E-01 -1.930590000000E-01
  46 T   8 O     2.714070000000E-01  1.977230000000E-01 -1.616950000000E-01
  47 T   8 O     7.490000000000E-03  9.479900000000E-02 -2.305670000000E-01
  48 T   8 O    -4.923280000000E-01  1.727150000000E-01 -1.680220000000E-01
  49 T   8 O    -2.624300000000E-01 -3.667640000000E-01 -9.816000000000E-02
  50 T   8 O     2.404900000000E-02  2.771160000000E-01 -3.644410000000E-01
  51 T   8 O     3.980550000000E-01  4.335710000000E-01 -2.330330000000E-01
  52 T   8 O    -8.631500000000E-02  3.364720000000E-01 -2.637170000000E-01
  53 T   8 O     3.653330000000E-01 -2.763020000000E-01 -2.726210000000E-01
  54 T   8 O    -9.937400000000E-02  4.077790000000E-01 -1.468730000000E-01
  55 T   8 O     3.668740000000E-01 -3.366590000000E-01 -9.898100000000E-02
  56 T   8 O     2.912670000000E-01 -1.760890000000E-01 -2.099700000000E-02
  57 T   8 O     4.918840000000E-01 -7.497700000000E-02 -2.303820000000E-01
  58 T   8 O     2.076040000000E-01  4.079480000000E-01 -3.106460000000E-01
  59 T   8 O     7.398100000000E-02 -2.662160000000E-01 -2.924900000000E-01
  60 T   8 O     4.868330000000E-01  1.577620000000E-01 -3.043470000000E-01
  61 T   8 O    -2.811610000000E-01 -3.988000000000E-02 -1.843860000000E-01
  62 T   8 O    -4.373620000000E-01  4.422430000000E-01 -1.109670000000E-01
  63 T   8 O     1.499890000000E-01  1.194620000000E-01 -7.968000000000E-03
  64 T   8 O     3.558770000000E-01 -2.761000000000E-02 -1.383550000000E-01
  65 T  14 SI    6.156000000000E-02  6.043700000000E-02  4.747700000000E-02
  66 T  14 SI    3.433570000000E-01  3.666740000000E-01  7.728000000000E-03
  67 T  14 SI    1.969870000000E-01  4.401240000000E-01  8.103800000000E-02
  68 T  14 SI    4.267350000000E-01  2.077160000000E-01  7.738000000000E-02
  69 T  14 SI    6.999000000000E-02  3.308140000000E-01  1.541000000000E-01
  70 T  14 SI    3.081310000000E-01  7.930600000000E-02  1.499360000000E-01
  71 T  14 SI    1.866660000000E-01  1.981750000000E-01  2.182140000000E-01
  72 T  14 SI    4.325980000000E-01  4.329900000000E-01  2.226740000000E-01
  73 T  14 SI    6.602000000000E-03 -4.426750000000E-01 -1.510000000000E-04
  74 T  14 SI    3.180860000000E-01 -1.604970000000E-01  5.944500000000E-02
  75 T  14 SI    1.634200000000E-01 -6.937900000000E-02  1.129260000000E-01
  76 T  14 SI    4.167320000000E-01 -3.123310000000E-01  1.162730000000E-01
  77 T  14 SI    2.139600000000E-02 -2.133270000000E-01  1.505080000000E-01
  78 T  14 SI    2.954420000000E-01 -4.590640000000E-01  1.628050000000E-01
  79 T  14 SI    1.686710000000E-01 -3.164880000000E-01  2.136100000000E-01
  80 T  14 SI    4.302240000000E-01 -4.612300000000E-02  2.166860000000E-01
  81 T  14 SI   -4.088560000000E-01  1.090210000000E-01  2.566900000000E-02
  82 T  14 SI   -1.766710000000E-01  3.183150000000E-01  3.845300000000E-02
  83 T  14 SI   -3.107840000000E-01  4.497350000000E-01  9.605700000000E-02
  84 T  14 SI   -6.456500000000E-02  1.929150000000E-01  1.059130000000E-01
  85 T  14 SI   -4.490830000000E-01  3.175870000000E-01  1.515060000000E-01
  86 T  14 SI   -2.061590000000E-01  5.481300000000E-02  1.532110000000E-01
  87 T  14 SI   -3.281310000000E-01  1.853910000000E-01  2.148240000000E-01
  88 T  14 SI   -6.589900000000E-02  4.491610000000E-01  2.152060000000E-01
  89 T  14 SI   -4.598630000000E-01 -4.191450000000E-01  4.959300000000E-02
  90 T  14 SI   -1.778160000000E-01 -1.295230000000E-01  4.141000000000E-03
  91 T  14 SI   -3.255820000000E-01 -5.996100000000E-02  8.010000000000E-02
  92 T  14 SI   -9.953900000000E-02 -2.981960000000E-01  6.546000000000E-02
  93 T  14 SI   -4.396660000000E-01 -1.708300000000E-01  1.562230000000E-01
  94 T  14 SI   -1.860910000000E-01 -4.148720000000E-01  1.532590000000E-01
  95 T  14 SI   -3.195540000000E-01 -2.997710000000E-01  2.190010000000E-01
  96 T  14 SI   -7.808600000000E-02 -6.846300000000E-02  2.156920000000E-01
  97 T  14 SI    5.501100000000E-02  6.154300000000E-02  2.751490000000E-01
  98 T  14 SI    3.080170000000E-01  3.138390000000E-01  2.863340000000E-01
  99 T  14 SI    5.603500000000E-02 -4.337740000000E-01  2.816360000000E-01
 100 T  14 SI    2.999430000000E-01 -1.844680000000E-01  2.737200000000E-01
 101 T  14 SI   -4.484570000000E-01  7.018500000000E-02  2.847400000000E-01
 102 T  14 SI   -1.931120000000E-01  3.106410000000E-01  2.727230000000E-01
 103 T  14 SI   -4.523690000000E-01 -4.239570000000E-01  2.797740000000E-01
 104 T  14 SI   -2.001610000000E-01 -1.769900000000E-01  2.851600000000E-01
 105 T  14 SI    1.804780000000E-01  4.438050000000E-01  3.445970000000E-01
 106 T  14 SI    4.319720000000E-01  1.942910000000E-01  3.499900000000E-01
 107 T  14 SI    4.303800000000E-02  3.163150000000E-01  3.980540000000E-01
 108 T  14 SI    3.113150000000E-01  6.005200000000E-02  4.082670000000E-01
 109 T  14 SI    1.816290000000E-01  2.019370000000E-01  4.550710000000E-01
 110 T  14 SI    4.407900000000E-01  4.376960000000E-01  4.699550000000E-01
 111 T  14 SI    1.860340000000E-01 -5.703600000000E-02  3.406010000000E-01
 112 T  14 SI    4.197890000000E-01 -3.015560000000E-01  3.468140000000E-01
 113 T  14 SI    5.994800000000E-02 -1.806630000000E-01  4.041570000000E-01
 114 T  14 SI    3.017460000000E-01 -4.373460000000E-01  4.123650000000E-01
 115 T  14 SI    1.615830000000E-01 -3.175520000000E-01  4.726520000000E-01
 116 T  14 SI    4.147840000000E-01 -4.922800000000E-02  4.885630000000E-01
 117 T  14 SI   -3.239300000000E-01  4.386430000000E-01  3.311470000000E-01
 118 T  14 SI   -7.658300000000E-02  1.787850000000E-01  3.397140000000E-01
 119 T  14 SI   -4.291350000000E-01  3.233300000000E-01  4.044270000000E-01
 120 T  14 SI   -1.989580000000E-01  6.893300000000E-02  4.150630000000E-01
 121 T  14 SI   -2.758040000000E-01  2.454650000000E-01  4.712660000000E-01
 122 T  14 SI   -1.108780000000E-01  4.042670000000E-01  4.565970000000E-01
 123 T  14 SI   -3.257220000000E-01 -5.572300000000E-02  3.499510000000E-01
 124 T  14 SI   -6.489800000000E-02 -3.034530000000E-01  3.406340000000E-01
 125 T  14 SI   -4.586960000000E-01 -1.702280000000E-01  4.149180000000E-01
 126 T  14 SI   -1.933870000000E-01 -4.433820000000E-01  3.912920000000E-01
 127 T  14 SI   -3.020490000000E-01 -3.074640000000E-01  4.564750000000E-01
 128 T  14 SI   -8.402500000000E-02 -8.658000000000E-02  4.696310000000E-01
 129 T 272 HF   -1.620730000000E-01  7.082000000000E-03 -3.452240000000E-01
 130 T 272 HF   -1.228030000000E-01 -4.196960000000E-01 -4.531560000000E-01
 131 T 272 HF   -3.400250000000E-01 -2.315770000000E-01 -3.915070000000E-01
 132 T 272 HF    5.470400000000E-02 -2.758660000000E-01 -3.883630000000E-01
 133 T 272 HF    3.603450000000E-01  2.435790000000E-01 -4.634750000000E-01
 134 T 272 HF    1.290370000000E-01  4.273890000000E-01 -3.899100000000E-01
 135 T 272 HF    3.591540000000E-01 -3.914010000000E-01 -4.266430000000E-01
 136 T 272 HF   -1.599390000000E-01  3.437670000000E-01 -3.478690000000E-01
 137 T 272 HF    1.360700000000E-01  2.014700000000E-02 -4.124890000000E-01
 138 T 272 HF   -3.745290000000E-01  4.103260000000E-01 -4.400390000000E-01
 139 T 272 HF   -4.138080000000E-01  1.094780000000E-01 -3.866580000000E-01
 140 T 272 HF   -9.294300000000E-02  1.569340000000E-01 -5.450500000000E-02
 141 T 272 HF   -4.457170000000E-01 -3.735440000000E-01 -9.347100000000E-02
 142 T 272 HF   -2.562100000000E-01 -4.916520000000E-01 -1.623000000000E-01
 143 T 272 HF    1.011040000000E-01  3.963710000000E-01 -1.268310000000E-01
 144 T 272 HF    1.975780000000E-01  8.076100000000E-02 -9.654500000000E-02
 145 T 272 HF    1.937080000000E-01 -2.694220000000E-01 -8.899200000000E-02
 146 T 272 HF   -4.332910000000E-01 -4.805910000000E-01 -2.761030000000E-01
 147 T 272 HF    4.778950000000E-01 -1.359260000000E-01 -2.503600000000E-02
 148 T 272 HF    4.219820000000E-01  3.418650000000E-01 -1.491270000000E-01
 149 T 272 HF   -7.509200000000E-02 -9.648600000000E-02 -1.075780000000E-01
 150 T 272 HF    8.133300000000E-02  2.375970000000E-01 -2.737390000000E-01
 151 T 272 HF    5.168700000000E-02 -8.362600000000E-02 -2.493900000000E-01
 152 T 272 HF    2.447110000000E-01 -4.236840000000E-01 -2.648630000000E-01
 153 T 272 HF    3.688960000000E-01  8.977600000000E-02 -2.265190000000E-01
 154 T 272 HF   -1.095700000000E-02 -3.629940000000E-01 -2.254610000000E-01
 155 T 272 HF   -1.955380000000E-01  2.684390000000E-01 -1.952950000000E-01
 156 T 272 HF   -4.235800000000E-01  6.205000000000E-03 -1.316050000000E-01
 157 T 272 HF    3.900660000000E-01 -1.066050000000E-01 -3.147670000000E-01
 158 T 272 HF   -3.129920000000E-01 -1.448530000000E-01 -2.556110000000E-01
 159 T 272 HF    3.888410000000E-01  3.159820000000E-01 -3.274700000000E-01
 160 T 272 HF    3.828000000000E-01 -2.123680000000E-01 -1.790120000000E-01

 T = ATOM BELONGING TO THE ASYMMETRIC UNIT

 ****   1 SYMMOPS - TRANSLATORS IN FRACTIONAL UNITS
  V INV                   ROTATION MATRICES                       TRANSLATOR
  1  1  1.00  0.00  0.00  0.00  1.00  0.00  0.00  0.00  1.00    0.00  0.00  0.00

 DIRECT LATTICE VECTORS CARTESIAN COMPONENTS (ANGSTROM)
          X                    Y                    Z
   0.105962210000E+02   0.648831406535E-15   0.000000000000E+00
   0.000000000000E+00   0.105893740000E+02   0.000000000000E+00
   0.132710032174E-14   0.132710032174E-14   0.216731930000E+02


 CARTESIAN COORDINATES - PRIMITIVE CELL
 *******************************************************************************
 *      ATOM          X(ANGSTROM)         Y(ANGSTROM)         Z(ANGSTROM)
 *******************************************************************************
   1     8 O    -1.539175273797E+00 -2.659256545750E+00 -8.550096311693E+00
   2     8 O    -5.252197074407E+00  3.034173332220E+00 -8.714509153791E+00
   3     8 O    -1.891245312743E+00 -2.297322331804E+00  1.056173706637E+01
   4     8 O     1.876400007122E+00  1.852494498186E+00 -1.006810842261E+01
   5     8 O     3.166097853695E+00 -2.561251889380E-01 -8.229658153188E+00
   6     8 O     2.181242689071E+00 -4.142965505012E+00 -7.964031499780E+00
   7     8 O     5.244133350226E+00 -2.816815841496E+00 -9.217197192233E+00
   8     8 O    -2.810361522283E+00  5.827332512200E-02 -9.072615321730E+00
   9     8 O    -3.303647398496E+00 -4.167861123286E+00 -1.022432879775E+01
  10     8 O     2.501439295249E+00 -2.800074041202E+00 -1.005677334267E+01
  11     8 O     1.791820971100E-02 -3.725659454420E-01 -1.020657845268E+01
  12     8 O     5.099261816714E+00  8.915829333040E-01 -1.008763596950E+01
  13     8 O    -3.406653262837E+00  4.682441163442E+00 -7.452327413050E+00
  14     8 O    -1.990870982585E+00  4.325102737812E+00 -9.374241148711E+00
  15     8 O     4.679015691854E+00 -5.181031248858E+00 -7.592921416041E+00
  16     8 O     2.937537366725E+00  4.549851611588E+00 -9.601007767070E+00
  17     8 O     5.367833634180E-01 -4.125037694830E+00 -1.046784879430E+01
  18     8 O    -2.601139138638E+00 -8.258546888860E-01 -1.381405975434E+00
  19     8 O    -2.264603159678E+00  1.799939435024E+00 -2.586652238164E+00
  20     8 O    -4.930230899322E+00 -1.893115336850E+00 -2.523626592920E+00
  21     8 O     5.952639071170E-01  2.414451397618E+00 -2.090921294675E+00
  22     8 O    -1.433223660018E+00 -1.357208297458E+00 -6.112035484737E+00
  23     8 O    -4.559649262289E+00 -3.214468013944E+00 -1.056134694890E-01
  24     8 O    -1.988317293324E+00 -4.208778464422E+00 -5.037175151095E+00
  25     8 O     4.796506590302E+00  5.091974613518E+00  1.726269822450E-01
  26     8 O    -4.271262511553E+00 -8.437719096940E-01 -7.331152590987E+00
  27     8 O     3.268807023848E+00  3.826078488062E+00 -1.514609419612E+00
  28     8 O     3.005512124440E-01  5.669550839600E-02 -7.374737382110E+00
  29     8 O     2.255882469795E+00 -3.283235408700E+00 -3.992960712355E+00
  30     8 O    -2.942538783037E+00  2.095097056526E+00  1.331167514060E-01
  31     8 O    -4.930877268803E+00  5.330584977860E-01 -9.210456829210E-01
  32     8 O    -6.789210719120E-01 -3.450018049200E-02  4.666238452900E-02
  33     8 O    -3.222416768310E-01 -5.018336106722E+00 -8.090364541777E+00
  34     8 O    -3.606158911825E+00  4.051716869254E+00 -4.821982017798E+00
  35     8 O    -3.894524470119E+00 -3.249561199380E+00 -6.756769630101E+00
  36     8 O    -6.520808441190E-01  4.407572782524E+00  1.118120026870E-01
  37     8 O     8.135036748330E-01 -4.659017468154E+00 -1.602840988315E+00
  38     8 O     2.569837901804E+00 -6.719487271700E-01 -5.401371486267E+00
  39     8 O     2.754614803602E+00  2.012478760578E+00 -6.159153006319E+00
  40     8 O    -2.765295794370E-01 -2.109445658296E+00 -3.920182130261E+00
  41     8 O     1.066414277661E+00  5.243106159246E+00 -4.481907946435E+00
  42     8 O     1.449435878148E+00 -4.626020978770E+00  9.048774809430E-01
  43     8 O    -2.450153585609E+00  1.835096156704E+00 -7.093094239075E+00
  44     8 O     1.205012848341E+00 -1.030197838964E+00 -2.065975449532E+00
  45     8 O    -4.670464541507E+00 -3.976606439472E+00 -4.184204967387E+00
  46     8 O     2.875888552947E+00  2.093762795402E+00 -3.504446942135E+00
  47     8 O     7.936569529000E-02  1.003862065826E+00 -4.997123090431E+00
  48     8 O    -5.216816292488E+00  1.828943730410E+00 -3.641573234246E+00
  49     8 O    -2.780766277030E+00 -3.883801165736E+00 -2.127440624880E+00
  50     8 O     2.548285188290E-01  2.934484965384E+00 -7.898600130113E+00
  51     8 O     4.217878750155E+00  4.591245474554E+00 -5.050569184369E+00
  52     8 O    -9.146128156150E-01  3.563027848528E+00 -5.715589438381E+00
  53     8 O     3.871149206593E+00 -2.925865214948E+00 -5.908567548853E+00
  54     8 O    -1.052988865654E+00  4.318124340346E+00 -3.183206875489E+00
  55     8 O     3.887477983154E+00 -3.565008061466E+00 -2.145234316333E+00
  56     8 O     3.086329502007E+00 -1.864672278286E+00 -4.550720334210E-01
  57     8 O     5.212111570364E+00 -7.939594943980E-01 -4.993113549726E+00
  58     8 O     2.199817864484E+00  4.319913944552E+00 -6.732690712678E+00
  59     8 O     7.839190258010E-01 -2.819060788784E+00 -6.339192220570E+00
  60     8 O     5.158590058093E+00  1.670600820988E+00 -6.596171269971E+00
  61     8 O    -2.979244092581E+00 -4.223042351200E-01 -3.996233364498E+00
  62     8 O    -4.634384409002E+00  4.683076525882E+00 -2.405009207631E+00
  63     8 O     1.589316591569E+00  1.265027796788E+00 -1.726920018240E-01
  64     8 O     3.770951340817E+00 -2.923726161400E-01 -2.998594617515E+00
  65    14 SI    6.523033647600E-01  6.399899964380E-01  1.028978184061E+00
  66    14 SI    3.638286653897E+00  3.882848122076E+00  1.674904355040E-01
  67    14 SI    2.087317786127E+00  4.660637642376E+00  1.756352214334E+00
  68    14 SI    4.521778368435E+00  2.199582409784E+00  1.677071674340E+00
  69    14 SI    7.416295077900E-01  3.503113170436E+00  3.339839041300E+00
  70    14 SI    3.265024172951E+00  8.398008944440E-01  3.249591865648E+00
  71    14 SI    1.977954189186E+00  2.098549192450E+00  4.729394137302E+00
  72    14 SI    4.583904012158E+00  4.585093048260E+00  4.826056578082E+00
  73    14 SI    6.995625104200E-02 -4.687651135450E+00 -3.272652143000E-03
  74    14 SI    3.370509553006E+00 -1.699562758878E+00  1.288362957885E+00
  75    14 SI    1.731634435820E+00 -7.346801787460E-01  2.447466992718E+00
  76    14 SI    4.415784369772E+00 -3.307389770794E+00  2.520007169689E+00
  77    14 SI    2.267167445160E-01 -2.258999387298E+00  3.261988932044E+00
  78    14 SI    3.130568724682E+00 -4.861200385936E+00  3.528504186365E+00
  79    14 SI    1.787275192291E+00 -3.351409798512E+00  4.629610756730E+00
  80    14 SI    4.558748583504E+00 -4.884136970020E-01  4.696277498398E+00
  81    14 SI   -4.332328533176E+00  1.154464142854E+00  5.563291911170E-01
  82    14 SI   -1.872044960291E+00  3.370756584810E+00  8.333992904290E-01
  83    14 SI   -3.293135947264E+00  4.762412115890E+00  2.081861900001E+00
  84    14 SI   -6.841450088650E-01  2.042849085210E+00  2.295472890209E+00
  85    14 SI   -4.758582715343E+00  3.363047520538E+00  3.283618778658E+00
  86    14 SI   -2.184506325139E+00  5.804353570620E-01  3.320571572723E+00
  87    14 SI   -3.476948592951E+00  1.963174635234E+00  4.655922013032E+00
  88    14 SI   -6.982803676790E-01  4.756333815214E+00  4.664201172758E+00
  89    14 SI   -4.872809977723E+00 -4.438483165230E+00  1.074838660449E+00
  90    14 SI   -1.884177633336E+00 -1.371567488602E+00  8.974869221300E-02
  91    14 SI   -3.449938825622E+00 -6.349494544140E-01  1.736022759300E+00
  92    14 SI   -1.054737242119E+00 -3.157708969304E+00  1.418727213780E+00
  93    14 SI   -4.658798102186E+00 -1.808982760420E+00  3.385851230039E+00
  94    14 SI   -1.971861362111E+00 -4.393234770128E+00  3.321611885987E+00
  95    14 SI   -3.386064805434E+00 -3.174387233354E+00  4.746450940193E+00
  96    14 SI   -8.274165130060E-01 -7.249803121620E-01  4.674734344556E+00
  97    14 SI    5.829087134310E-01  6.517018440820E-01  5.963357380757E+00
  98    14 SI    3.263816203757E+00  3.323358546786E+00  6.205772044462E+00
  99    14 SI    5.937592437350E-01 -4.593395117476E+00  6.103951383748E+00
 100    14 SI    3.178262315403E+00 -1.953400643032E+00  5.932386387960E+00
 101    14 SI   -4.751949480997E+00  7.432152141900E-01  6.171224974820E+00
 102    14 SI   -2.046257429752E+00  3.289493728734E+00  5.910778214539E+00
 103    14 SI   -4.793401897549E+00 -4.489439232918E+00  6.063595898382E+00
 104    14 SI   -2.120950191581E+00 -1.874213304260E+00  6.180327715880E+00
 105    14 SI    1.912384773638E+00  4.699617128070E+00  7.468517288221E+00
 106    14 SI    4.577270777812E+00  2.057420063834E+00  7.585400818070E+00
 107    14 SI    4.560401593980E-01  3.349577836810E+00  8.627101166422E+00
 108    14 SI    3.298762540615E+00  6.359130874480E-01  8.848449486531E+00
 109    14 SI    1.924581024009E+00  2.138386417438E+00  9.862841611703E+00
 110    14 SI    4.670708254590E+00  4.634926642304E+00  1.018542541631E+01
 111    14 SI    1.971257377514E+00 -6.039755354640E-01  7.381911208993E+00
 112    14 SI    4.448177017369E+00 -3.193289265944E+00  7.516566757102E+00
 113    14 SI    6.352222565080E-01 -1.913108074962E+00  8.759372663301E+00
 114    14 SI    3.197367301866E+00 -4.631220361404E+00  8.937266231445E+00
 115    14 SI    1.712169177843E+00 -3.362676892448E+00  1.024387801784E+01
 116    14 SI    4.395142931264E+00 -5.212937032720E-01  1.058872019166E+01
 117    14 SI   -3.432433868530E+00  4.644954779482E+00  7.177012842371E+00
 118    14 SI   -8.114903928430E-01  1.893221230590E+00  7.362687086802E+00
 119    14 SI   -4.547209298835E+00  3.423862295420E+00  8.765224425411E+00
 120    14 SI   -2.108202937718E+00  7.299573179420E-01  8.995740506159E+00
 121    14 SI   -2.922480136684E+00  2.599320688910E+00  1.021383897234E+01
 122    14 SI   -1.174887792038E+00  4.280934458858E+00  9.895914904221E+00
 123    14 SI   -3.451422296562E+00 -5.900716874020E-01  7.584555563543E+00
 124    14 SI   -6.876735504580E-01 -3.213377308422E+00  7.382626424362E+00
 125    14 SI   -4.860444187816E+00 -1.802607957272E+00  8.992597893174E+00
 126    14 SI   -2.049171390527E+00 -4.695137822868E+00  8.480547035356E+00
 127    14 SI   -3.200577956829E+00 -3.255851287536E+00  9.893270774675E+00
 128    14 SI   -8.903474695250E-01 -9.168280009200E-01  1.017840330178E+01
 129   272 HF   -1.717361326133E+00  7.499394666800E-02 -7.482106380232E+00
 130   272 HF   -1.301247727463E+00 -4.444317910304E+00 -9.821337447108E+00
 131   272 HF   -3.602980045525E+00 -2.452255462798E+00 -8.485206771851E+00
 132   272 HF    5.796556735840E-01 -2.921248247884E+00 -8.417066253059E+00
 133   272 HF    3.818295256245E+00  2.579349129546E+00 -1.004498312567E+01
 134   272 HF    1.367304569177E+00  4.525781964486E+00 -8.450594682630E+00
 135   272 HF    3.805675157034E+00 -4.144691572974E+00 -9.246716081099E+00
 136   272 HF   -1.694748990519E+00  3.640277331858E+00 -7.539431975717E+00
 137   272 HF    1.441827791470E+00  2.133441179780E-01 -8.939953707377E+00
 138   272 HF   -3.968592054909E+00  4.345095475924E+00 -9.537050174527E+00
 139   272 HF   -4.384801019568E+00  1.159303486772E+00 -8.380113458994E+00
 140   272 HF   -9.848445684030E-01  1.661832819316E+00 -1.181297384465E+00
 141   272 HF   -4.722915835457E+00 -3.955597121456E+00 -2.025815022903E+00
 142   272 HF   -2.714857782410E+00 -5.206286905848E+00 -3.517559223900E+00
 143   272 HF    1.071320327984E+00  4.197320761754E+00 -2.748832741383E+00
 144   272 HF    2.093580152738E+00  8.552084336140E-01 -2.092438418185E+00
 145   272 HF    2.052572777468E+00 -2.853010321828E+00 -1.928740791456E+00
 146   272 HF   -4.591247193311E+00 -5.089157840034E+00 -5.984033606879E+00
 147   272 HF    5.063881034795E+00 -1.439371250324E+00 -5.426100599480E-01
 148   272 HF    4.471414530022E+00  3.620136342510E+00 -3.232058252511E+00
 149   272 HF   -7.956914273320E-01 -1.021726339764E+00 -2.331558756554E+00
 150   272 HF    8.618224425930E-01  2.516003494278E+00 -5.932798178627E+00
 151   272 HF    5.476868748270E-01 -8.855469901240E-01 -5.405077602270E+00
 152   272 HF    2.593011837131E+00 -4.486548333816E+00 -5.740426917559E+00
 153   272 HF    3.908903542016E+00  9.506716402240E-01 -4.909390005167E+00
 154   272 HF   -1.161027934970E-01 -3.843879225756E+00 -4.886459766973E+00
 155   272 HF   -2.071963861898E+00  2.842600967186E+00 -4.232666226935E+00
 156   272 HF   -4.488347291180E+00  6.570706567000E-02 -2.852300564765E+00
 157   272 HF    4.133225540586E+00 -1.128880215270E+00 -6.822005941031E+00
 158   272 HF   -3.316532403232E+00 -1.533902592022E+00 -5.539906535923E+00
 159   272 HF    4.120245169861E+00  3.346051575268E+00 -7.097320511710E+00
 160   272 HF    4.056233398800E+00 -2.248844177632E+00 -3.879761625316E+00

 *******************************************************************************
 *** PSEUDOPOTENTIAL INFORMATION ***
 *******************************************************************************

 ATOMIC NUMBER  72, NUCLEAR CHARGE 12.000, HAY-WADT SMALL CORE  PSEUDOPOTENTIAL
   TYPE       EXPONENT      COEFF.    N      EXPONENT      COEFF.    N
  W0 TMS   685.5502931  -60.0000000  -1   151.8080485 -688.4980664   0
            38.0522099 -199.7748820   0    10.2057544  -77.2365121   0
             3.4376287  -14.6532596   0     0.8997539   -0.6762204   0
  P0 TMS   380.1096725    3.0000000  -2   724.6234505   31.3395532  -1
           281.4764603 1251.6866138   0    89.3590988  700.8900106   0
            22.9765773  266.0445845   0     3.6700035  465.0196155   0
             3.4703000 -369.5404568   0
  P1 TMS   228.3135771    2.0000000  -2    64.0878447   60.2776972  -1
            20.5139289  192.2174983   0     3.1643736  339.6460089   0
             2.9880924 -266.1066543   0
  P2 TMS   143.7102399    3.0000000  -2    63.1859170   54.6576760  -1
            32.0227449  217.5811427   0    10.7674922  125.1363084   0
             3.1003260   37.6203195   0
  P3 TMS    85.0395853    4.0000000  -2    41.8198820   49.6358393  -1
            19.6524967  178.4657222   0     6.0777120   82.0077173   0
             1.4776693    6.3063943   0

 *******************************************************************************
 LOCAL ATOMIC FUNCTIONS BASIS SET
 *******************************************************************************
   ATOM  X(AU)  Y(AU)  Z(AU)    NO. TYPE  EXPONENT  S COEF   P COEF   D/F/G COEF
 *******************************************************************************
   1 O  -2.909 -5.025-16.157
                                  1 S  
                                         2.703E+04 2.173E-04 0.000E+00 0.000E+00
                                         4.052E+03 1.684E-03 0.000E+00 0.000E+00
                                         9.223E+02 8.740E-03 0.000E+00 0.000E+00
                                         2.612E+02 3.524E-02 0.000E+00 0.000E+00
                                         8.535E+01 1.115E-01 0.000E+00 0.000E+00
                                         3.104E+01 2.559E-01 0.000E+00 0.000E+00
                                  2 S  
                                         1.226E+01 3.977E-01 0.000E+00 0.000E+00
                                         4.999E+00 2.463E-01 0.000E+00 0.000E+00
                                  3 S  
                                         1.099E+00 1.000E+00 0.000E+00 0.000E+00
                                  4 S  
                                         3.566E-01 1.000E+00 0.000E+00 0.000E+00
                             5-   7 P  
                                         6.327E+01 0.000E+00 6.069E-03 0.000E+00
                                         1.463E+01 0.000E+00 4.191E-02 0.000E+00
                                         4.450E+00 0.000E+00 1.615E-01 0.000E+00
                                         1.528E+00 0.000E+00 3.571E-01 0.000E+00
                             8-  10 P  
                                         5.490E-01 0.000E+00 1.000E+00 0.000E+00
                            11-  13 P  
                                         1.859E-01 0.000E+00 1.000E+00 0.000E+00
                            14-  18 D  
                                         2.535E-01 0.000E+00 0.000E+00 1.000E+00
   2 O  -9.925  5.734-16.468
   3 O  -3.574 -4.341 19.959
   4 O   3.546  3.501-19.026
   5 O   5.983 -0.484-15.552
   6 O   4.122 -7.829-15.050
   7 O   9.910 -5.323-17.418
   8 O  -5.311  0.110-17.145
   9 O  -6.243 -7.876-19.321
  10 O   4.727 -5.291-19.005
  11 O   0.034 -0.704-19.288
  12 O   9.636  1.685-19.063
  13 O  -6.438  8.849-14.083
  14 O  -3.762  8.173-17.715
  15 O   8.842 -9.791-14.349
  16 O   5.551  8.598-18.143
  17 O   1.014 -7.795-19.781
  18 O  -4.915 -1.561 -2.610
  19 O  -4.279  3.401 -4.888
  20 O  -9.317 -3.577 -4.769
  21 O   1.125  4.563 -3.951
  22 O  -2.708 -2.565-11.550
  23 O  -8.616 -6.074 -0.200
  24 O  -3.757 -7.953 -9.519
  25 O   9.064  9.622  0.326
  26 O  -8.072 -1.594-13.854
  27 O   6.177  7.230 -2.862
  28 O   0.568  0.107-13.936
  29 O   4.263 -6.204 -7.546
  30 O  -5.561  3.959  0.252
  31 O  -9.318  1.007 -1.741
  32 O  -1.283 -0.065  0.088
  33 O  -0.609 -9.483-15.289
  34 O  -6.815  7.657 -9.112
  35 O  -7.360 -6.141-12.768
  36 O  -1.232  8.329  0.211
  37 O   1.537 -8.804 -3.029
  38 O   4.856 -1.270-10.207
  39 O   5.205  3.803-11.639
  40 O  -0.523 -3.986 -7.408
  41 O   2.015  9.908 -8.470
  42 O   2.739 -8.742  1.710
  43 O  -4.630  3.468-13.404
  44 O   2.277 -1.947 -3.904
  45 O  -8.826 -7.515 -7.907
  46 O   5.435  3.957 -6.622
  47 O   0.150  1.897 -9.443
  48 O  -9.858  3.456 -6.882
  49 O  -5.255 -7.339 -4.020
  50 O   0.482  5.545-14.926
  51 O   7.971  8.676 -9.544
  52 O  -1.728  6.733-10.801
  53 O   7.315 -5.529-11.166
  54 O  -1.990  8.160 -6.015
  55 O   7.346 -6.737 -4.054
  56 O   5.832 -3.524 -0.860
  57 O   9.849 -1.500 -9.436
  58 O   4.157  8.163-12.723
  59 O   1.481 -5.327-11.979
  60 O   9.748  3.157-12.465
  61 O  -5.630 -0.798 -7.552
  62 O  -8.758  8.850 -4.545
  63 O   3.003  2.391 -0.326
  64 O   7.126 -0.553 -5.667
  65 SI  1.233  1.209  1.944
                               1153 S  
                                         8.765E+04 2.370E-04 0.000E+00 0.000E+00
                                         1.285E+04 1.920E-03 0.000E+00 0.000E+00
                                         2.786E+03 1.090E-02 0.000E+00 0.000E+00
                                         7.280E+02 4.960E-02 0.000E+00 0.000E+00
                                         2.195E+02 1.668E-01 0.000E+00 0.000E+00
                                         7.590E+01 3.630E-01 0.000E+00 0.000E+00
                                         2.946E+01 4.051E-01 0.000E+00 0.000E+00
                                         1.199E+01 1.504E-01 0.000E+00 0.000E+00
                          1154-1157 SP 
                                         1.660E+02-8.840E-03 9.090E-03 0.000E+00
                                         3.937E+01-8.590E-02 6.010E-02 0.000E+00
                                         1.271E+01-7.120E-02 1.952E-01 0.000E+00
                                         4.718E+00 4.147E-01 3.384E-01 0.000E+00
                                         1.848E+00 6.168E-01 3.006E-01 0.000E+00
                                         7.365E-01 1.154E-01 6.480E-02 0.000E+00
                          1158-1161 SP 
                                         4.175E+00-1.990E-02-8.700E-03 0.000E+00
                                         1.447E+00-1.864E-01-4.380E-03 0.000E+00
                                         5.023E-01 9.670E-02 2.207E-01 0.000E+00
                          1162-1165 SP 
                                         3.220E-01 1.000E+00 1.000E+00 0.000E+00
                          1166-1169 SP 
                                         1.300E-01 1.000E+00 1.000E+00 0.000E+00
                          1170-1174 D  
                                         6.000E-01 0.000E+00 0.000E+00 1.000E+00
  66 SI  6.875  7.338  0.317
  67 SI  3.944  8.807  3.319
  68 SI  8.545  4.157  3.169
  69 SI  1.401  6.620  6.311
  70 SI  6.170  1.587  6.141
  71 SI  3.738  3.966  8.937
  72 SI  8.662  8.665  9.120
  73 SI  0.132 -8.858 -0.006
  74 SI  6.369 -3.212  2.435
  75 SI  3.272 -1.388  4.625
  76 SI  8.345 -6.250  4.762
  77 SI  0.428 -4.269  6.164
  78 SI  5.916 -9.186  6.668
  79 SI  3.377 -6.333  8.749
  80 SI  8.615 -0.923  8.875
  81 SI -8.187  2.182  1.051
  82 SI -3.538  6.370  1.575
  83 SI -6.223  9.000  3.934
  84 SI -1.293  3.860  4.338
  85 SI -8.992  6.355  6.205
  86 SI -4.128  1.097  6.275
  87 SI -6.570  3.710  8.798
  88 SI -1.320  8.988  8.814
  89 SI -9.208 -8.388  2.031
  90 SI -3.561 -2.592  0.170
  91 SI -6.519 -1.200  3.281
  92 SI -1.993 -5.967  2.681
  93 SI -8.804 -3.418  6.398
  94 SI -3.726 -8.302  6.277
  95 SI -6.399 -5.999  8.969
  96 SI -1.564 -1.370  8.834
  97 SI  1.102  1.232 11.269
  98 SI  6.168  6.280 11.727
  99 SI  1.122 -8.680 11.535
 100 SI  6.006 -3.691 11.211
 101 SI -8.980  1.404 11.662
 102 SI -3.867  6.216 11.170
 103 SI -9.058 -8.484 11.459
 104 SI -4.008 -3.542 11.679
 105 SI  3.614  8.881 14.113
 106 SI  8.650  3.888 14.334
 107 SI  0.862  6.330 16.303
 108 SI  6.234  1.202 16.721
 109 SI  3.637  4.041 18.638
 110 SI  8.826  8.759 19.248
 111 SI  3.725 -1.141 13.950
 112 SI  8.406 -6.034 14.204
 113 SI  1.200 -3.615 16.553
 114 SI  6.042 -8.752 16.889
 115 SI  3.236 -6.355 19.358
 116 SI  8.306 -0.985 20.010
 117 SI -6.486  8.778 13.563
 118 SI -1.533  3.578 13.913
 119 SI -8.593  6.470 16.564
 120 SI -3.984  1.379 16.999
 121 SI -5.523  4.912 19.301
 122 SI -2.220  8.090 18.701
 123 SI -6.522 -1.115 14.333
 124 SI -1.300 -6.072 13.951
 125 SI -9.185 -3.406 16.994
 126 SI -3.872 -8.873 16.026
 127 SI -6.048 -6.153 18.696
 128 SI -1.683 -1.733 19.234
 129 HF -3.245  0.142-14.139
                               2561 S  
                                         2.400E+01 2.211E-01 0.000E+00 0.000E+00
                                         1.600E+01-3.581E+00 0.000E+00 0.000E+00
                                         1.440E+01 4.254E+00 0.000E+00 0.000E+00
                                         1.030E+01-6.959E-01 0.000E+00 0.000E+00
                               2562 S  
                                         3.793E+00 1.000E+00 0.000E+00 0.000E+00
                               2563 S  
                                         1.019E+00 1.000E+00 0.000E+00 0.000E+00
                               2564 S  
                                         4.599E-01 1.000E+00 0.000E+00 0.000E+00
                               2565 S  
                                         1.928E-01 1.000E+00 0.000E+00 0.000E+00
                          2566-2568 P  
                                         2.235E+01 0.000E+00-7.453E-03 0.000E+00
                                         8.740E+00 0.000E+00 1.564E-01 0.000E+00
                                         4.850E+00 0.000E+00-4.487E-01 0.000E+00
                          2569-2571 P  
                                         1.257E+00 0.000E+00 1.000E+00 0.000E+00
                          2572-2574 P  
                                         6.112E-01 0.000E+00 1.000E+00 0.000E+00
                          2575-2577 P  
                                         2.674E-01 0.000E+00 1.000E+00 0.000E+00
                          2578-2582 D  
                                         8.056E+00 0.000E+00 0.000E+00 9.673E-03
                                         4.342E+00 0.000E+00 0.000E+00-5.457E-02
                                         1.184E+00 0.000E+00 0.000E+00 1.969E-01
                                         5.134E-01 0.000E+00 0.000E+00 4.000E-01
                          2583-2587 D  
                                         2.055E-01 0.000E+00 0.000E+00 1.000E+00
 130 HF -2.459 -8.399-18.560
 131 HF -6.809 -4.634-16.035
 132 HF  1.095 -5.520-15.906
 133 HF  7.216  4.874-18.982
 134 HF  2.584  8.552-15.969
 135 HF  7.192 -7.832-17.474
 136 HF -3.203  6.879-14.247
 137 HF  2.725  0.403-16.894
 138 HF -7.500  8.211-18.022
 139 HF -8.286  2.191-15.836
 140 HF -1.861  3.140 -2.232
 141 HF -8.925 -7.475 -3.828
 142 HF -5.130 -9.838 -6.647
 143 HF  2.025  7.932 -5.195
 144 HF  3.956  1.616 -3.954
 145 HF  3.879 -5.391 -3.645
 146 HF -8.676 -9.617-11.308
 147 HF  9.569 -2.720 -1.025
 148 HF  8.450  6.841 -6.108
 149 HF -1.504 -1.931 -4.406
 150 HF  1.629  4.755-11.211
 151 HF  1.035 -1.673-10.214
 152 HF  4.900 -8.478-10.848
 153 HF  7.387  1.797 -9.277
 154 HF -0.219 -7.264 -9.234
 155 HF -3.915  5.372 -7.999
 156 HF -8.482  0.124 -5.390
 157 HF  7.811 -2.133-12.892
 158 HF -6.267 -2.899-10.469
 159 HF  7.786  6.323-13.412
 160 HF  7.665 -4.250 -7.332
 INFORMATION **** TOLINTEG **** COULOMB AND EXCHANGE SERIES TOLERANCES MODIFIED
 INFORMATION **** READM2 **** FULL DIRECT SCF (MONO AND BIEL INT) SELECTED
 INFORMATION **** SMEAR **** FERMI SMEARING ACTIVE
 FERMI SMEARING - TEMPERATURE SMEARING OF FERMI SURFACE  0.1000E-12
 INFORMATION **** MAXCYCLE **** MAX NUMBER OF SCF CYCLES SET TO         250

 MODIFIED BROYDEN MIXING OF THE FOCK MATRIX
 WO PARAMETER(D.D. Johnson, PRB38, 12807,(1988)             1.0000E-04
 % OF FOCK/KS MATRICES MIXING WHEN BROYDEN METHOD IS ON             85
 NUMBER OF SCF ITERATIONS AFTER WHICH BROYDEN METHOD IS ACTIVE     100
 INFORMATION **** TOLDEE **** SCF TOL ON TOTAL ENERGY SET TO           7
 *******************************************************************************
 N. OF ATOMS PER CELL      160  COULOMB OVERLAP TOL         (T1) 10** -8
 NUMBER OF SHELLS         1248  COULOMB PENETRATION TOL     (T2) 10** -8
 NUMBER OF AO             3424  EXCHANGE OVERLAP TOL        (T3) 10** -8
 N. OF ELECTRONS PER CELL 1792  EXCHANGE PSEUDO OVP (F(G))  (T4) 10** -8
 CORE ELECTRONS PER CELL   768  EXCHANGE PSEUDO OVP (P(G))  (T5) 10**-16
 N. OF SYMMETRY OPERATORS    1  POLE ORDER IN MONO ZONE                4
 *******************************************************************************
 TYPE OF CALCULATION :  UNRESTRICTED OPEN SHELL
 KOHN-SHAM HAMILTONIAN

 (EXCHANGE)[CORRELATION] FUNCTIONAL:(BECKE)[LEE-YANG-PARR]

 NON-LOCAL WEIGHTING FACTOR (EXCHANGE) =           0.9000
 NON-LOCAL WEIGHTING FACTOR [CORRELATION] =        0.8100

 HYBRID EXCHANGE - PERCENTAGE OF FOCK EXCHANGE    20.0000

 SPIN POLARIZED DFT SELECTED
 CORE  PSEUDO POTENTIAL         TOL. ON PSEUDO              (TP) 10**- 6

 CAPPA:IS1  2;IS2  2;IS3  2; K PTS MONK NET    8; SYMMOPS: K SPACE  2;G SPACE  1

 *******************************************************************************
 MAX NUMBER OF SCF CYCLES     250  CONVERGENCE ON DELTAP        10**-17
 WEIGHT OF F(I) IN F(I+1)      97% CONVERGENCE ON ENERGY        10**- 7
 SHRINK. FACT.(MONKH.)    2  2  2  NUMBER OF K POINTS IN THE IBZ      8
 SHRINKING FACTOR(GILAT NET)    2  NUMBER OF K POINTS(GILAT NET)      8
 *******************************************************************************
 *** K POINTS COORDINATES (OBLIQUE COORDINATES IN UNITS OF IS =  2)
   1-R(  0  0  0)   2-R(  1  0  0)   3-R(  0  1  0)   4-R(  1  1  0)
   5-R(  0  0  1)   6-R(  1  0  1)   7-R(  0  1  1)   8-R(  1  1  1)

 DIRECT LATTICE VECTORS COMPON. (A.U.)     RECIP. LATTICE VECTORS COMPON. (A.U.) 
        X            Y            Z              X            Y            Z
   20.0239557    0.0000000    0.0000000      0.3137834    0.0000000    0.0000000
    0.0000000   20.0110168    0.0000000      0.0000000    0.3139863    0.0000000
    0.0000000    0.0000000   40.9563992      0.0000000    0.0000000    0.1534116

 DISK SPACE FOR EIGENVECTORS (FTN 10)   93790208 REALS

 SYMMETRY ADAPTION OF THE BLOCH FUNCTIONS DISABLED
 TTTTTTTTTTTTTTTTTTTTTTTTTTTTTT gordsh1     TELAPSE        5.65 TCPU        0.89
[r2i7n10:00650] 19 more processes have sent help message help-opal-shmem-mmap.txt / mmap on nfs
[r2i7n10:00650] Set MCA parameter "orte_base_help_aggregate" to 0 to see all help / error messages

 DIMENSIONS  P(G)= 9133954 F(G)= 1619961 P(G),F(G) (IRR) 4575153
 MAX G-VECTOR INDEX FOR 1- AND 2-ELECTRON INTEGRALS  39

 TTTTTTTTTTTTTTTTTTTTTTTTTTTTTT INPUT       TELAPSE       10.62 TCPU        5.82

 NEIGHBORS OF THE NON-EQUIVALENT ATOMS

 N = NUMBER OF NEIGHBORS AT DISTANCE R
    ATOM  N     R/ANG      R/AU   NEIGHBORS (ATOM LABELS AND CELL INDICES)
   1 O    1     2.0752     3.9215 131 HF   0 0 0
   1 O    1     2.1391     4.0423 132 HF   0 0 0
   1 O    1     2.2043     4.1656 130 HF   0 0 0
   1 O    1     2.6107     4.9334   3 O    0 0-1
   1 O    1     2.6940     5.0909  33 O    0 0 0
   1 O    1     2.7660     5.2270  22 O    0 0 0

   2 O    1     2.0107     3.7996 138 HF   0 0 0
   2 O    1     2.0519     3.8775 159 HF  -1 0 0
   2 O    1     2.0748     3.9208 133 HF  -1 0 0
   2 O    1     2.0927     3.9546 139 HF   0 0 0
   2 O    1     2.5261     4.7736  60 O   -1 0 0
   2 O    1     2.5566     4.8312  12 O   -1 0 0

   3 O    1     1.7477     3.3027 128 SI   0 0 0
   3 O    1     1.7550     3.3164 127 SI   0 0 0
   3 O    1     2.5062     4.7359   9 O    0 0 1
   3 O    1     2.5733     4.8629 130 HF   0 0 1
   3 O    1     2.6107     4.9334   1 O    0 0 1
   3 O    1     2.8580     5.4009  11 O    0 0 1

   4 O    1     1.7662     3.3376 109 SI   0 0-1
   4 O    1     2.0368     3.8489 137 HF   0 0 0
   4 O    1     2.0736     3.9185 133 HF   0 0 0
   4 O    1     2.9024     5.4848  11 O    0 0 0
   4 O    1     2.9167     5.5117  50 O    0 0 0
   4 O    1     2.9360     5.5482  16 O    0 0 0

   5 O    1     1.9179     3.6244 157 HF   0 0 0
   5 O    1     1.9230     3.6340 137 HF   0 0 0
   5 O    1     2.9166     5.5115  12 O    0 0 0
   5 O    1     2.9202     5.5184  38 O    0 0 0
   5 O    1     3.0067     5.6818  28 O    0 0 0
   5 O    1     3.0805     5.8213   4 O    0 0 0

   6 O    1     2.0647     3.9017 132 HF   0 0 0
   6 O    1     2.0698     3.9114 135 HF   0 0 0
   6 O    1     2.1420     4.0477 134 HF   0-1 0
   6 O    1     2.2874     4.3225 152 HF   0 0 0
   6 O    1     2.4573     4.6437  58 O    0-1 0
   6 O    1     2.5071     4.7377  10 O    0 0 0

   7 O    1     1.9308     3.6487 131 HF   1 0 0
   7 O    1     1.9579     3.6999 135 HF   0 0 0
   7 O    1     2.6525     5.0125   9 O    1 0 0
   7 O    1     2.8684     5.4204  10 O    0 0 0
   7 O    1     2.8923     5.4657  35 O    1 0 0
   7 O    1     2.9235     5.5247  15 O    0 0 0

   8 O    1     1.9299     3.6470 129 HF   0 0 0
   8 O    1     2.0422     3.8592 139 HF   0 0 0
   8 O    1     2.4455     4.6214  26 O    0 0 0
   8 O    1     2.6843     5.0726  43 O    0 0 0
   8 O    1     2.6974     5.0974 131 HF   0 0 0
   8 O    1     2.9904     5.6510  12 O   -1 0 0

   9 O    1     1.8062     3.4132 127 SI   0 0-1
   9 O    1     2.0612     3.8951 130 HF   0 0 0
   9 O    1     2.2860     4.3200 138 HF   0-1 0
   9 O    1     2.4612     4.6510 131 HF   0 0 0
   9 O    1     2.5062     4.7359   3 O    0 0-1
   9 O    1     2.6155     4.9426  14 O    0-1 0

  10 O    1     1.6803     3.1753 115 SI   0 0-1
  10 O    1     2.0409     3.8567 135 HF   0 0 0
  10 O    1     2.4051     4.5449  17 O    0 0 0
  10 O    1     2.5071     4.7377   6 O    0 0 0
  10 O    1     2.5291     4.7794 132 HF   0 0 0
  10 O    1     2.8684     5.4204   7 O    0 0 0

  11 O    1     1.6675     3.1512 128 SI   0 0-1
  11 O    1     1.9938     3.7677 137 HF   0 0 0
  11 O    1     2.8580     5.4009   3 O    0 0-1
  11 O    1     2.8781     5.4388  28 O    0 0 0
  11 O    1     2.9024     5.4848   4 O    0 0 0
  11 O    1     3.0774     5.8155   8 O    0 0 0

  12 O    1     1.8670     3.5281 116 SI   0 0-1
  12 O    1     2.0553     3.8839 139 HF   1 0 0
  12 O    1     2.1193     4.0048 133 HF   0 0 0
  12 O    1     2.5566     4.8312   2 O    1 0 0
  12 O    1     2.9166     5.5115   5 O    0 0 0
  12 O    1     2.9904     5.6510   8 O    1 0 0

  13 O    1     2.0061     3.7909 136 HF   0 0 0
  13 O    1     2.0562     3.8856 146 HF   0 1 0
  13 O    1     2.1853     4.1297 138 HF   0 0 0
  13 O    1     2.4137     4.5612  14 O    0 0 0
  13 O    1     2.6172     4.9457  15 O   -1 1 0
  13 O    1     2.7123     5.1254  34 O    0 0 0

  14 O    1     1.9807     3.7430 136 HF   0 0 0
  14 O    1     1.9845     3.7502 138 HF   0 0 0
  14 O    1     1.9969     3.7736 130 HF   0 1 0
  14 O    1     2.4137     4.5612  13 O    0 0 0
  14 O    1     2.4464     4.6231  33 O    0 1 0
  14 O    1     2.5382     4.7965 122 SI   0 0-1

  15 O    1     2.0869     3.9437 146 HF   1 0 0
  15 O    1     2.1382     4.0406 135 HF   0 0 0
  15 O    1     2.1934     4.1449 159 HF   0-1 0
  15 O    1     2.6172     4.9457  13 O    1-1 0
  15 O    1     2.7087     5.1186   2 O    1-1 0
  15 O    1     2.7100     5.1211  51 O    0-1 0

  16 O    1     1.9467     3.6787 134 HF   0 0 0
  16 O    1     2.1141     3.9951 135 HF   0 1 0
  16 O    1     2.2036     4.1641 133 HF   0 0 0
  16 O    1     2.5634     4.8441 110 SI   0 0-1
  16 O    1     2.6170     4.9454   6 O    0 1 0
  16 O    1     2.7932     5.2785  15 O    0 1 0

  17 O    1     1.6992     3.2109 115 SI   0 0-1
  17 O    1     1.9744     3.7311 130 HF   0 0 0
  17 O    1     2.3784     4.4945 132 HF   0 0 0
  17 O    1     2.4051     4.5449  10 O    0 0 0
  17 O    1     2.6811     5.0666  33 O    0 0 0
  17 O    1     2.9184     5.5150 134 HF   0-1 0

  18 O    1     1.7251     3.2601  90 SI   0 0 0
  18 O    1     2.0496     3.8732 149 HF   0 0 0
  18 O    1     2.5220     4.7659  32 O    0 0 0
  18 O    1     2.5534     4.8253 156 HF   0 0 0
  18 O    1     2.6727     5.0506  61 O    0 0 0
  18 O    1     2.7361     5.1705  31 O    0 0 0

  19 O    1     1.9057     3.6013 140 HF   0 0 0
  19 O    1     1.9580     3.7000 155 HF   0 0 0
  19 O    1     2.7269     5.1531  61 O    0 0 0
  19 O    1     2.8185     5.3262  30 O    0 0 0
  19 O    1     2.8325     5.3527 156 HF   0 0 0
  19 O    1     2.8575     5.3998  54 O    0 0 0

  20 O    1     2.0348     3.8452 156 HF   0 0 0
  20 O    1     2.1196     4.0055 147 HF  -1 0 0
  20 O    1     2.1318     4.0285 141 HF   0 0 0
  20 O    1     2.1347     4.0340 160 HF  -1 0 0
  20 O    1     2.4701     4.6679  55 O   -1 0 0
  20 O    1     2.5257     4.7729  64 O   -1 0 0

  21 O    1     1.9591     3.7022 143 HF   0 0 0
  21 O    1     1.9725     3.7274 140 HF   0 0 0
  21 O    1     2.1625     4.0864 144 HF   0 0 0
  21 O    1     2.4472     4.6246  63 O    0 0 0
  21 O    1     2.7022     5.1065  46 O    0 0 0
  21 O    1     2.7448     5.1869  54 O    0 0 0

  22 O    1     1.9762     3.7345 158 HF   0 0 0
  22 O    1     2.0023     3.7837 129 HF   0 0 0
  22 O    1     2.1555     4.0733 151 HF   0 0 0
  22 O    1     2.5690     4.8546  28 O    0 0 0
  22 O    1     2.5900     4.8944  40 O    0 0 0
  22 O    1     2.6654     5.0369  59 O    0 0 0

  23 O    1     1.7291     3.2675  89 SI   0 0 0
  23 O    1     2.0647     3.9018 141 HF   0 0 0
  23 O    1     2.0708     3.9132 147 HF  -1 0 0
  23 O    1     2.6128     4.9376  25 O   -1-1 0
  23 O    1     2.7749     5.2439  49 O    0 0 0
  23 O    1     2.7803     5.2540  20 O    0 0 0

  24 O    1     1.9134     3.6158 154 HF   0 0 0
  24 O    1     1.9576     3.6993 142 HF   0 0 0
  24 O    1     2.7406     5.1789  35 O    0 0 0
  24 O    1     2.8241     5.3367  45 O    0 0 0
  24 O    1     2.8438     5.3741  34 O    0-1 0
  24 O    1     2.9063     5.4922 146 HF   0 0 0

  25 O    1     1.6717     3.1590  89 SI   1 1 0
  25 O    1     1.6744     3.1641  66 SI   0 0 0
  25 O    1     2.6044     4.9217  27 O    0 0 0
  25 O    1     2.6128     4.9376  23 O    1 1 0
  25 O    1     2.8582     5.4012  62 O    1 0 0
  25 O    1     2.8931     5.4671 141 HF   1 1 0

  26 O    1     2.0894     3.9484 131 HF   0 0 0
  26 O    1     2.1439     4.0514 158 HF   0 0 0
  26 O    1     2.2640     4.2783 139 HF   0 0 0
  26 O    1     2.2681     4.2861 157 HF  -1 0 0
  26 O    1     2.4455     4.6214   8 O    0 0 0
  26 O    1     2.5019     4.7280  35 O    0 0 0

  27 O    1     1.7231     3.2563  66 SI   0 0 0
  27 O    1     2.1067     3.9811 148 HF   0 0 0
  27 O    1     2.5476     4.8142 143 HF   0 0 0
  27 O    1     2.6044     4.9217  25 O    0 0 0
  27 O    1     2.6673     5.0406  46 O    0 0 0
  27 O    1     2.9631     5.5994  62 O    1 0 0

  28 O    1     1.9434     3.6726 137 HF   0 0 0
  28 O    1     2.0208     3.8189 129 HF   0 0 0
  28 O    1     2.1974     4.1524 151 HF   0 0 0
  28 O    1     2.5689     4.8545  47 O    0 0 0
  28 O    1     2.5690     4.8546  22 O    0 0 0
  28 O    1     2.8781     5.4388  11 O    0 0 0

  29 O    1     2.0794     3.9296 160 HF   0 0 0
  29 O    1     2.1184     4.0031 145 HF   0 0 0
  29 O    1     2.1483     4.0597 152 HF   0 0 0
  29 O    1     2.4311     4.5940  41 O    0-1 0
  29 O    1     2.4810     4.6885  55 O    0 0 0
  29 O    1     2.5311     4.7830  53 O    0 0 0

  30 O    1     1.7307     3.2706  81 SI   0 0 0
  30 O    1     1.8066     3.4139  82 SI   0 0 0
  30 O    1     2.3975     4.5306 140 HF   0 0 0
  30 O    1     2.7395     5.1769  31 O    0 0 0
  30 O    1     2.8185     5.3262  19 O    0 0 0
  30 O    1     3.1091     5.8754  32 O    0 0 0

[...]
   0.0000033  -0.0376545  -0.0126815   0.0251861  -0.0263205  -0.0060909
  -0.0240331  -0.0004622   0.0107733  -0.0052400   0.0045112  -0.0046768
  -0.0063739  -0.0073410   0.0047249   0.0007357   0.0318873  -0.0023033
   0.0162808  -0.0214477  -0.0142703   0.0055556  -0.0130243   0.0025258
  -0.0131936  -0.0053185  -0.0173455   0.0143387   0.0055936  -0.0002162
  -0.0214770  -0.0037538  -0.0088137   0.0066379   0.0232671   0.0101684
  -0.0152611  -0.0021891   0.0048341  -0.0267289  -0.0128514  -0.0463733
  -0.0048137  -0.0210595  -0.0044995  -0.0125357  -0.0028300  -0.0009801
  -0.0086396   0.0051966  -0.0128258  -0.0236269  -0.0038978  -0.0065920
  -0.0029802  -0.0005694  -0.0771436  -0.1617971   0.0008357  -0.0070165
  -0.0070419  -0.0195543  -0.0018743  -0.0021737  -0.0134593  -0.0113921
   0.0016538  -0.0017998  -0.0046727  -0.0051976  -0.0011585  -0.0032018
  -0.0045754  -0.0004487   0.0010359  -0.0026692   0.0014493  -0.0021724
   0.0020819  -0.0011305   0.0059262   0.0076069   0.0085507  -0.0001423
   0.0123958   0.0106311  -0.0004108  -0.0033385   0.0004679  -0.0051365
   0.0029293  -0.0036815   0.0025538  -0.0007869   0.0123110   0.0023169
  -0.0029784   0.0178558   0.0027215  -0.0005710  -0.0007956  -0.0030711
   0.0051454   0.0175753  -0.3161365  -0.1995625  -0.0380078  -0.0939694
  -0.0516460   0.0045045   0.0116997   0.0753458   0.3678403   0.1997235
   0.3852590  -0.0383360  -0.0597648  -0.2616960  -0.1340198  -0.5395996
  -0.4537820   0.0038818  -0.5627268  -0.3196097   0.0374121   0.5051096
   0.0811855   0.3168794   0.2446589   0.2574163  -0.6023268  -0.1466405
   0.6000753  -0.4864578   0.0571989  -0.3848845
 TTTTTTTTTTTTTTTTTTTTTTTTTTTTTT MOQGAD      TELAPSE   134724.42 TCPU   123956.31
 WARNING **** GENBUD **** COUL. BIPO BUFFER TOO SMALL - TO AVOID I/O SET BIPOSIZE =     4260350
 TTTTTTTTTTTTTTTTTTTTTTTTTTTTTT SHELLX      TELAPSE   134912.91 TCPU   124138.83
 TTTTTTTTTTTTTTTTTTTTTTTTTTTTTT MONMO3      TELAPSE   134953.53 TCPU   124179.38
 NUMERICALLY INTEGRATED DENSITY    895.0000809625    897.0001366539
 TTTTTTTTTTTTTTTTTTTTTTTTTTTTTT NUMDFT      TELAPSE   134960.12 TCPU   124185.89
 CYC 158 ETOT(AU) -2.490920737240E+04 DETOT  5.89E-07 tst  4.80E-09 PX  2.46E-04
 MODIFIED BROYDEN: MIX%=  85 W0=  1.000000000000E-04 W=  1.185389396318E+02
 TTTTTTTTTTTTTTTTTTTTTTTTTTTTTT FDIK        TELAPSE   135295.82 TCPU   124467.98

    ALPHA      ELECTRONS
 INSULATING STATE
 TOP OF VALENCE BANDS -    BAND    895; K    6; EIG -4.9671050E-02 AU
 TOP OF VALENCE BANDS -    BAND    895; K    1; EIG -4.9735827E-02 AU
 BOTTOM OF VIRTUAL BANDS - BAND    896; K    1; EIG -2.5386629E-02 AU

    BETA       ELECTRONS
 INSULATING STATE
 TOP OF VALENCE BANDS -    BAND    897; K    3; EIG -4.4207213E-02 AU
 TOP OF VALENCE BANDS -    BAND    897; K    1; EIG -1.6136015E-02 AU
 BOTTOM OF VIRTUAL BANDS - BAND    898; K    5; EIG -2.3606925E-02 AU
 BOTTOM OF VIRTUAL BANDS - BAND    898; K    1; EIG -1.0593474E-02 AU
 TTTTTTTTTTTTTTTTTTTTTTTTTTTTTT PDIG        TELAPSE   135563.90 TCPU   124715.56
 CHARGE NORMALIZATION FACTOR   1.00000000
 TOTAL ATOMIC CHARGES:
   9.2884676   9.7376423   8.9820511   9.3153297   9.2002909   9.6003460
   9.1920412   9.3429725   9.4057703   9.2697305   9.0753987   9.2221942
   9.2878893   9.4769908   9.3870206   9.3436015   9.1808640   9.2079901
   9.2974546   9.5937898   9.3515010   9.3773664   9.3062205   9.3251541
   8.8918327   9.5869787   9.1753260   9.4490272   9.3471095   8.9577552
   9.2994955   9.1285253   9.5349153   9.3894992   9.2638668   8.9186813
   9.2598818   9.3575043   9.4202780   9.4010565   9.4399540   8.9447635
   9.4330486   9.3807063   9.3202890   9.4925447   9.3884149   9.3367007
   9.2725514   9.5740096   9.4309318   9.5169797   9.3901812   9.2906522
   9.3161827   9.1956210   9.6106303   9.6047124   9.4731832   9.3651628
   9.3617910   9.3681536   9.1075987   9.4560059  13.1040535  13.1078833
  13.5470118  14.0986194  14.0738577  13.9855198  14.0016601  13.9970665
  12.7178208  13.8227165  14.1845998  14.1602352  14.0077875  14.0579711
  13.9757077  13.9962744  13.0684228  13.4437499  14.0541471  14.0516683
  14.0498567  14.0155883  13.9779646  13.9721049  13.0477847  13.4278602
  14.2900959  13.9872658  13.9912606  14.0629975  13.9810320  13.9826972
  13.9999832  13.9848548  14.0107789  14.0021316  13.9872441  13.9847244
  13.9948105  14.0023685  13.9848241  13.9676978  14.0083296  14.1926055
  13.8480187  14.7291324  13.9877823  13.9795846  14.1207437  14.0610670
  13.0672479  13.6735712  13.9754486  13.9766932  14.0415318  14.0055820
  14.3541464  14.3298801  14.0283355  14.0106397  14.1158401  14.0870767
  13.1873498  13.0876325   9.5881042   9.4522010   9.4555136   9.7358766
   9.9181187   9.1468654   9.4078912   9.1944290   9.5893266   9.6887162
   9.4808144   9.9201429   9.4338333   9.5712794   9.6613474   9.6188132
   9.6634162   9.5124186   9.6727260   9.4138305   9.9244970   9.5017054
   9.4315244   9.4566657   9.5028567   9.5454567   9.6519283   9.3305622
   9.7229178   9.5110232   9.6882168   9.3554626
 SUMMED SPIN DENSITY          -2.00000000
 TOTAL ATOMIC SPINS  :
   0.0015923   0.0134727  -0.0002595  -0.0072922   0.0087724   0.0007496
   0.0068563   0.0050057  -0.0046509   0.0173727   0.0427479  -0.0006504
   0.0041477   0.0065904  -0.0002415  -0.0036711  -0.0050637   0.0005900
   0.0061563  -0.0182859   0.0085974  -0.0192452  -0.0003295   0.0004270
   0.0000031  -0.0376537  -0.0126807   0.0251899  -0.0263205  -0.0060900
  -0.0240343  -0.0004624   0.0107712  -0.0052392   0.0045117  -0.0046767
  -0.0063747  -0.0073398   0.0047223   0.0007377   0.0318798  -0.0023030
   0.0162850  -0.0214481  -0.0142702   0.0055566  -0.0130225   0.0025266
  -0.0131931  -0.0053216  -0.0173448   0.0143400   0.0055939  -0.0002158
  -0.0214770  -0.0037549  -0.0088129   0.0066377   0.0232693   0.0101645
  -0.0152576  -0.0021880   0.0048326  -0.0267288  -0.0128515  -0.0463859
  -0.0048177  -0.0210667  -0.0044999  -0.0125386  -0.0028304  -0.0009801
  -0.0086389   0.0051954  -0.0128262  -0.0236278  -0.0038970  -0.0065936
  -0.0029802  -0.0005704  -0.0771465  -0.1617943   0.0008373  -0.0070164
  -0.0070434  -0.0195540  -0.0018756  -0.0021729  -0.0134574  -0.0113884
   0.0016543  -0.0017975  -0.0046728  -0.0051956  -0.0011575  -0.0032020
  -0.0045761  -0.0004484   0.0010365  -0.0026700   0.0014498  -0.0021730
   0.0020822  -0.0011306   0.0059277   0.0076083   0.0085525  -0.0001432
   0.0123920   0.0106342  -0.0004114  -0.0033389   0.0004683  -0.0051355
   0.0029296  -0.0036821   0.0025537  -0.0007874   0.0123127   0.0023208
  -0.0029809   0.0178573   0.0027219  -0.0005717  -0.0007954  -0.0030726
   0.0051490   0.0175789  -0.3161251  -0.1996722  -0.0379927  -0.0939234
  -0.0516448   0.0045104   0.0117106   0.0753684   0.3678183   0.1998182
   0.3851657  -0.0383437  -0.0597590  -0.2617029  -0.1340188  -0.5395988
  -0.4537888   0.0038779  -0.5627501  -0.3195756   0.0374175   0.5050913
   0.0811998   0.3168351   0.2446262   0.2574455  -0.6023143  -0.1466284
   0.6001032  -0.4864297   0.0571895  -0.3848754
 TTTTTTTTTTTTTTTTTTTTTTTTTTTTTT MOQGAD      TELAPSE   135565.64 TCPU   124717.25
 WARNING **** GENBUD **** COUL. BIPO BUFFER TOO SMALL - TO AVOID I/O SET BIPOSIZE =     4260350
 TTTTTTTTTTTTTTTTTTTTTTTTTTTTTT SHELLX      TELAPSE   135755.17 TCPU   124898.76
 TTTTTTTTTTTTTTTTTTTTTTTTTTTTTT MONMO3      TELAPSE   135777.63 TCPU   124921.19
 NUMERICALLY INTEGRATED DENSITY    895.0000809481    897.0001366527
 TTTTTTTTTTTTTTTTTTTTTTTTTTTTTT NUMDFT      TELAPSE   135784.28 TCPU   124927.75
 CYC 159 ETOT(AU) -2.490920737303E+04 DETOT -6.29E-07 tst  2.01E-09 PX  1.30E-04
 MODIFIED BROYDEN: MIX%=  85 W0=  1.000000000000E-04 W=  4.197943612800E+02
 TTTTTTTTTTTTTTTTTTTTTTTTTTTTTT FDIK        TELAPSE   136186.24 TCPU   125249.40

    ALPHA      ELECTRONS
 INSULATING STATE
 TOP OF VALENCE BANDS -    BAND    895; K    6; EIG -4.9668061E-02 AU
 TOP OF VALENCE BANDS -    BAND    895; K    1; EIG -4.9733170E-02 AU
 BOTTOM OF VIRTUAL BANDS - BAND    896; K    1; EIG -2.5391606E-02 AU

    BETA       ELECTRONS
 INSULATING STATE
 TOP OF VALENCE BANDS -    BAND    897; K    3; EIG -4.4210276E-02 AU
 TOP OF VALENCE BANDS -    BAND    897; K    1; EIG -1.6138508E-02 AU
 BOTTOM OF VIRTUAL BANDS - BAND    898; K    5; EIG -2.3610935E-02 AU
 BOTTOM OF VIRTUAL BANDS - BAND    898; K    1; EIG -1.0597061E-02 AU
 TTTTTTTTTTTTTTTTTTTTTTTTTTTTTT PDIG        TELAPSE   136431.37 TCPU   125468.00
 CHARGE NORMALIZATION FACTOR   1.00000000
 TOTAL ATOMIC CHARGES:
   9.2884734   9.7376318   8.9820543   9.3153160   9.2002795   9.6003366
   9.1920405   9.3429757   9.4057696   9.2697310   9.0753990   9.2221868
   9.2878902   9.4769944   9.3870198   9.3435901   9.1808669   9.2079980
   9.2974547   9.5937922   9.3515010   9.3773658   9.3062209   9.3251563
   8.8918341   9.5869760   9.1753296   9.4490217   9.3471034   8.9577623
   9.2995032   9.1285308   9.5349251   9.3894970   9.2638716   8.9186858
   9.2598835   9.3574997   9.4202685   9.4010549   9.4399432   8.9447625
   9.4330445   9.3807059   9.3202900   9.4925373   9.3884146   9.3367015
   9.2725567   9.5740068   9.4309266   9.5169747   9.3901828   9.2906539
   9.3161845   9.1956271   9.6106314   9.6047049   9.4731780   9.3651632
   9.3617874   9.3681572   9.1076092   9.4560093  13.1040729  13.1079013
  13.5470346  14.0986606  14.0738736  13.9855573  14.0016733  13.9970704
  12.7178251  13.8227431  14.1846101  14.1602317  14.0077737  14.0579774
  13.9757121  13.9962809  13.0684431  13.4437774  14.0541458  14.0516753
  14.0498735  14.0155919  13.9779653  13.9720971  13.0477910  13.4278795
  14.2901118  13.9872739  13.9912615  14.0629745  13.9810131  13.9826906
  13.9999811  13.9848538  14.0107795  14.0021348  13.9872343  13.9847170
  13.9948018  14.0023549  13.9848265  13.9676791  14.0083306  14.1925883
  13.8479971  14.7291241  13.9877792  13.9795830  14.1207427  14.0610679
  13.0672472  13.6735465  13.9754447  13.9766826  14.0415131  14.0055655
  14.3541233  14.3298801  14.0283240  14.0106413  14.1158402  14.0870834
  13.1873586  13.0876328   9.5880941   9.4522217   9.4555116   9.7358975
   9.9180448   9.1468612   9.4078991   9.1944307   9.5893141   9.6887188
   9.4807975   9.9201586   9.4338347   9.5712881   9.6613594   9.6188286
   9.6634265   9.5124254   9.6727584   9.4138261   9.9244869   9.5016808
   9.4315176   9.4566442   9.5028525   9.5454600   9.6519240   9.3305595
   9.7229166   9.5110338   9.6882031   9.3554574
 SUMMED SPIN DENSITY          -2.00000000
 TOTAL ATOMIC SPINS  :
   0.0015970   0.0134728  -0.0002592  -0.0072918   0.0087729   0.0007484
   0.0068562   0.0050079  -0.0046492   0.0173718   0.0427459  -0.0006504
   0.0041481   0.0065909  -0.0002418  -0.0036704  -0.0050613   0.0005890
   0.0061566  -0.0182854   0.0085979  -0.0192442  -0.0003290   0.0004262
   0.0000029  -0.0376528  -0.0126813   0.0251895  -0.0263190  -0.0060846
  -0.0240352  -0.0004637   0.0107782  -0.0052388   0.0045136  -0.0046721
  -0.0063751  -0.0073391   0.0047210   0.0007361   0.0318803  -0.0023035
   0.0162864  -0.0214481  -0.0142711   0.0055562  -0.0130211   0.0025267
  -0.0131928  -0.0053225  -0.0173446   0.0143394   0.0055940  -0.0002154
  -0.0214763  -0.0037549  -0.0088120   0.0066364   0.0232702   0.0101641
  -0.0152576  -0.0021880   0.0048312  -0.0267287  -0.0128515  -0.0463902
  -0.0048188  -0.0210687  -0.0045008  -0.0125391  -0.0028305  -0.0009800
  -0.0086367   0.0051946  -0.0128264  -0.0236280  -0.0038960  -0.0065942
  -0.0029802  -0.0005708  -0.0771471  -0.1618226   0.0008382  -0.0070164
  -0.0070442  -0.0195542  -0.0018755  -0.0021718  -0.0134578  -0.0113855
   0.0016541  -0.0017955  -0.0046733  -0.0051934  -0.0011573  -0.0032024
  -0.0045759  -0.0004486   0.0010364  -0.0026699   0.0014499  -0.0021729
   0.0020821  -0.0011302   0.0059278   0.0076082   0.0085525  -0.0001432
   0.0123910   0.0106339  -0.0004114  -0.0033387   0.0004687  -0.0051347
   0.0029299  -0.0036820   0.0025538  -0.0007870   0.0123124   0.0023214
  -0.0029818   0.0178581   0.0027221  -0.0005720  -0.0007955  -0.0030729
   0.0051498   0.0175793  -0.3161229  -0.1996996  -0.0380024  -0.0939055
  -0.0516500   0.0045081   0.0117089   0.0753724   0.3678211   0.1998229
   0.3851565  -0.0383460  -0.0597580  -0.2617070  -0.1340118  -0.5396037
  -0.4537914   0.0038846  -0.5627647  -0.3195712   0.0374338   0.5050782
   0.0812205   0.3168177   0.2446292   0.2574579  -0.6023089  -0.1466241
   0.6001026  -0.4864379   0.0571940  -0.3848685
 TTTTTTTTTTTTTTTTTTTTTTTTTTTTTT MOQGAD      TELAPSE   136432.60 TCPU   125468.97
 WARNING **** GENBUD **** COUL. BIPO BUFFER TOO SMALL - TO AVOID I/O SET BIPOSIZE =     4260350
 TTTTTTTTTTTTTTTTTTTTTTTTTTTTTT SHELLX      TELAPSE   136620.64 TCPU   125651.09
 TTTTTTTTTTTTTTTTTTTTTTTTTTTTTT MONMO3      TELAPSE   136642.96 TCPU   125673.37
 NUMERICALLY INTEGRATED DENSITY    895.0000809447    897.0001366548
 TTTTTTTTTTTTTTTTTTTTTTTTTTTTTT NUMDFT      TELAPSE   136650.01 TCPU   125680.39
 CYC 160 ETOT(AU) -2.490920737307E+04 DETOT -4.63E-08 tst  4.93E-11 PX  4.79E-05
 MODIFIED BROYDEN: MIX%=  85 W0=  1.000000000000E-04 W=  1.501990138059E+03
 TTTTTTTTTTTTTTTTTTTTTTTTTTTTTT FDIK        TELAPSE   137013.65 TCPU   126012.09

    ALPHA      ELECTRONS
 INSULATING STATE
 TOP OF VALENCE BANDS -    BAND    895; K    6; EIG -4.9669131E-02 AU
 TOP OF VALENCE BANDS -    BAND    895; K    1; EIG -4.9734184E-02 AU
 BOTTOM OF VIRTUAL BANDS - BAND    896; K    1; EIG -2.5391540E-02 AU

    BETA       ELECTRONS
 INSULATING STATE
 TOP OF VALENCE BANDS -    BAND    897; K    3; EIG -4.4210283E-02 AU
 TOP OF VALENCE BANDS -    BAND    897; K    1; EIG -1.6138247E-02 AU
 BOTTOM OF VIRTUAL BANDS - BAND    898; K    5; EIG -2.3610798E-02 AU
 BOTTOM OF VIRTUAL BANDS - BAND    898; K    1; EIG -1.0597246E-02 AU
 TTTTTTTTTTTTTTTTTTTTTTTTTTTTTT PDIG        TELAPSE   137257.20 TCPU   126241.35
 CHARGE NORMALIZATION FACTOR   1.00000000
 TOTAL ATOMIC CHARGES:
   9.2884742   9.7376334   8.9820557   9.3153197   9.2002811   9.6003371
   9.1920427   9.3429774   9.4057662   9.2697329   9.0753974   9.2221914
   9.2878895   9.4769916   9.3870201   9.3435891   9.1808659   9.2080014
   9.2974548   9.5937940   9.3514996   9.3773635   9.3062186   9.3251584
   8.8918334   9.5869852   9.1753277   9.4490210   9.3471019   8.9577629
   9.2995048   9.1285312   9.5349219   9.3894984   9.2638731   8.9186856
   9.2598813   9.3574996   9.4202717   9.4010526   9.4399415   8.9447611
   9.4330453   9.3807036   9.3202920   9.4925345   9.3884130   9.3367045
   9.2725539   9.5740090   9.4309284   9.5169736   9.3901848   9.2906486
   9.3161834   9.1956258   9.6106351   9.6047058   9.4731804   9.3651674
   9.3617858   9.3681583   9.1076108   9.4560088  13.1040745  13.1079031
  13.5470337  14.0986669  14.0738795  13.9855686  14.0016795  13.9970749
  12.7178173  13.8227443  14.1846134  14.1602253  14.0077661  14.0579734
  13.9757129  13.9962816  13.0684533  13.4437907  14.0541440  14.0516759
  14.0498766  14.0155979  13.9779680  13.9720973  13.0477915  13.4278718
  14.2901070  13.9872694  13.9912631  14.0629675  13.9810084  13.9826916
  13.9999814  13.9848517  14.0107791  14.0021304  13.9872318  13.9847147
  13.9947954  14.0023499  13.9848206  13.9676746  14.0083334  14.1925897
  13.8479940  14.7291194  13.9877752  13.9795760  14.1207431  14.0610645
  13.0672474  13.6735591  13.9754393  13.9766811  14.0415078  14.0055723
  14.3541344  14.3298701  14.0283220  14.0106414  14.1158389  14.0870747
  13.1873559  13.0876338   9.5881044   9.4522264   9.4555177   9.7358911
   9.9180594   9.1468601   9.4078959   9.1944265   9.5893090   9.6887040
   9.4808151   9.9201551   9.4338344   9.5712886   9.6613380   9.6188239
   9.6634151   9.5124282   9.6727621   9.4138201   9.9244825   9.5016900
   9.4315189   9.4566409   9.5028566   9.5454523   9.6519304   9.3305611
   9.7229349   9.5110293   9.6882049   9.3554674
 SUMMED SPIN DENSITY          -2.00000000
 TOTAL ATOMIC SPINS  :
   0.0015934   0.0134730  -0.0002591  -0.0072915   0.0087778   0.0007478
   0.0068555   0.0050086  -0.0046501   0.0173725   0.0427441  -0.0006495
   0.0041474   0.0065895  -0.0002420  -0.0036713  -0.0050622   0.0005897
   0.0061577  -0.0182861   0.0085975  -0.0192462  -0.0003296   0.0004262
   0.0000028  -0.0376533  -0.0126810   0.0251932  -0.0263193  -0.0060857
  -0.0240356  -0.0004632   0.0107827  -0.0052379   0.0045138  -0.0046738
  -0.0063750  -0.0073387   0.0047214   0.0007353   0.0318793  -0.0023040
   0.0162867  -0.0214472  -0.0142709   0.0055567  -0.0130203   0.0025267
  -0.0131931  -0.0053219  -0.0173446   0.0143393   0.0055944  -0.0002154
  -0.0214763  -0.0037546  -0.0088114   0.0066362   0.0232717   0.0101642
  -0.0152578  -0.0021878   0.0048317  -0.0267286  -0.0128515  -0.0463889
  -0.0048188  -0.0210678  -0.0045011  -0.0125380  -0.0028301  -0.0009793
  -0.0086367   0.0051951  -0.0128259  -0.0236292  -0.0038964  -0.0065947
  -0.0029794  -0.0005707  -0.0771452  -0.1618545   0.0008391  -0.0070172
  -0.0070438  -0.0195528  -0.0018750  -0.0021709  -0.0134586  -0.0113841
   0.0016531  -0.0017945  -0.0046729  -0.0051924  -0.0011575  -0.0032026
  -0.0045756  -0.0004492   0.0010364  -0.0026703   0.0014494  -0.0021726
   0.0020814  -0.0011309   0.0059269   0.0076077   0.0085530  -0.0001433
   0.0123890   0.0106334  -0.0004117  -0.0033392   0.0004689  -0.0051342
   0.0029288  -0.0036815   0.0025532  -0.0007871   0.0123115   0.0023220
  -0.0029809   0.0178578   0.0027216  -0.0005719  -0.0007956  -0.0030742
   0.0051494   0.0175783  -0.3161386  -0.1997240  -0.0380211  -0.0938687
  -0.0516561   0.0045067   0.0117050   0.0753722   0.3678374   0.1998176
   0.3851644  -0.0383485  -0.0597588  -0.2617059  -0.1340161  -0.5395954
  -0.4537851   0.0038866  -0.5627672  -0.3195724   0.0374570   0.5050875
   0.0812337   0.3168072   0.2446246   0.2574644  -0.6023115  -0.1466274
   0.6001088  -0.4864392   0.0571995  -0.3848759
 TTTTTTTTTTTTTTTTTTTTTTTTTTTTTT MOQGAD      TELAPSE   137258.60 TCPU   126242.71
 WARNING **** GENBUD **** COUL. BIPO BUFFER TOO SMALL - TO AVOID I/O SET BIPOSIZE =     4260350
 TTTTTTTTTTTTTTTTTTTTTTTTTTTTTT SHELLX      TELAPSE   137442.20 TCPU   126425.59
 +++ ENERGIES IN A.U. +++
 ::: EXT EL-POLE                                  -4.6960320271191E+04
 ::: EXT EL-SPHEROPOLE                             4.0744318958459E+02
 ::: BIELET ZONE E-E                               5.3351154473217E+04
 ::: TOTAL E-E                                     6.7982773916112E+03
 ::: TOTAL E-N + N-E                              -4.8024746566103E+04
 ::: TOTAL N-N                                    -5.7643632815684E+03
 ::: KINETIC ENERGY                                2.3762984664483E+04
 ::: PSEUDO TOTAL   ENERGY                        -2.3227847791578E+04
 ::: VIRIAL COEFFICIENT                            1.0113881122112E+00
 TTTTTTTTTTTTTTTTTTTTTTTTTTTTTT MONMO3      TELAPSE   137463.88 TCPU   126447.22
 NUMERICALLY INTEGRATED DENSITY    895.0000809429    897.0001366629
 TTTTTTTTTTTTTTTTTTTTTTTTTTTTTT NUMDFT      TELAPSE   137470.53 TCPU   126453.77
 CYC 161 ETOT(AU) -2.490920737306E+04 DETOT  1.04E-08 tst  4.42E-10 PX  4.79E-05

 == SCF ENDED - CONVERGENCE ON ENERGY      E(AU) -2.4909207373063E+04 CYCLES 161


 ENERGY EXPRESSION=HARTREE+FOCK EXCH*0.20000+(BECKE  EXCH)*0.80000+LYP    CORR

 FINITE TEMPERATURE DFT CALCULATION 
 TEMPERATURE      (T)    1.000000000000E-13 HARTREE 
 ENERGY           (E)   -2.490920737306E+04
 FREE ENERGY      (F)   -2.490920737306E+04
 ELECTRON ENTROPY (S)    0.000000000000E+00
 (E(T)+F(T))/2    (E0)  -2.490920737306E+04


 TOTAL ENERGY(DFT)(AU)(161) -2.4909207373063E+04 DE 1.0E-08 tester 4.4E-10
 TTTTTTTTTTTTTTTTTTTTTTTTTTTTTT EDFT        TELAPSE   137662.20 TCPU   126621.28
 EIGENVECTORS IN FORTRAN UNIT 10
 TTTTTTTTTTTTTTTTTTTTTTTTTTTTTT END         TELAPSE   137743.07 TCPU   126693.74
 EEEEEEEEEE TERMINATION  DATE 28 07 2015 TIME 11:09:33.9
NODE    0 CPU TIME =    126693.738
    TOTAL CPU TIME =  31214650.186
