--------------------------------------------------------------------------
WARNING: Open MPI will create a shared memory backing file in a
directory that appears to be mounted on a network filesystem.
Creating the shared memory backup file on a network file system, such
as NFS or Lustre is not recommended -- it may cause excessive network
traffic to your file servers and/or cause shared memory traffic in
Open MPI to be much slower than expected.

You may want to check what the typical temporary directory is on your
node.  Possible sources of the location of this temporary directory
include the $TEMPDIR, $TEMP, and $TMP environment variables.

Note, too, that system administrators can set a list of filesystems
where Open MPI is disallowed from creating temporary files by settings
the MCA parameter "orte_no_session_dir".

  Local host: r2i3n2
  Fileame:    /ichec/work/scratch/tmp/297975.service1.cb3.ichec.ie/openmpi-sessions-emehes@r2i3n2_0/12669/1/shared_mem_pool.r2i3n2

You can set the MCA paramter shmem_mmap_enable_nfs_warning to 0 to
disable this message.
--------------------------------------------------------------------------
--------------------------------------------------------------------------
WARNING: It appears that your OpenFabrics subsystem is configured to only
allow registering part of your physical memory.  This can cause MPI jobs to
run with erratic performance, hang, and/or crash.

This may be caused by your OpenFabrics vendor limiting the amount of
physical memory that can be registered.  You should investigate the
relevant Linux kernel module parameters that control how much physical
memory can be registered, and increase them to allow registering all
physical memory on your machine.

See this Open MPI FAQ item for more information on these Linux kernel module
parameters:

    http://www.open-mpi.org/faq/?category=openfabrics#ib-locked-pages

  Local host:              r1i4n10
  Registerable memory:     32768 MiB
  Total memory:            65506 MiB

Your MPI job will continue, but may be behave poorly and/or hang.
--------------------------------------------------------------------------
         192 PROCESSORS WORKING

         
 *******************************************************************************
 *                                                                             *
 *                                CRYSTAL09                                    *
 *                              public : 2.0                                   *
 *                      December 10th, 2012 - parallel executable              *
 *                                                                             *
 *                                                                             *
 *                                                                             *
 *                              MAIN AUTHORS                                   *
 *                                                                             *
 *    R. DOVESI(1,10), V.R. SAUNDERS(2), C. ROETTI(1,10), R. ORLANDO (1,3),    *
 *  C.M. ZICOVICH-WILSON(1,4), F. PASCALE(5), B. CIVALLERI(1,10), K. DOLL(6),  *
 *       N.M. HARRISON(2,7), I. J. BUSH(2), Ph. D'ARCO(8), M. LLUNELL(9)       *
 *                                                                             *
 * (1) THEORETICAL CHEMISTRY GROUP - UNIVERSITA' DI TORINO - TORINO (ITALY)    *
 *      http://www.crystal.unito.it                                            *
 * (2) COMPUTATIONAL SCIENCE & ENGINEERING DEPARTMENT - STFC DARESBURY LABORATO*Y (UK)
 *     http://www.cse.stfc.ac.uk/cmg/CRYSTAL/                                  *
 * (3) UNIVERSITA' DEL PIEMONTE ORIENTALE - ALESSANDRIA (ITALY)                *
 * (4) UNIVERSIDAD AUTONOMA DEL ESTADO DE MORELOS - CUERNAVACA (MEXICO)        *
 * (5) UNIVERSITE' HENRI POINCARE' - NANCY (FRANCE)                            *
 * (6) MPI FUER FESTKOERPERFORSCHUNG - STUTTGART (GERMANY)                     *
 * (7) IMPERIAL COLLEGE - LONDON (UK)                                          *
 * (8) UNIVERSITE' PIERRE ET MARIE CURIE - PARIS (FRANCE)                      *
 * (9) UNIVERSIDAD DE BARCELONA - BARCELONA (SPAIN)                            *
 *(10) NIS - NANOSTRUCTURED INTERFACES AND SURFACES - TORINO (ITALY)           *
 *     http://www.crystal.unito.it                                             *
 *******************************************************************************
 EEEEEEEEEE STARTING  DATE 07 10 2014 TIME 18:57:44.4
 Created with astools                                                            

 CRYSTAL CALCULATION
 (INPUT ACCORDING TO THE INTERNATIONAL TABLES FOR X-RAY CRYSTALLOGRAPHY)
 CRYSTAL FAMILY                       :  TRICLINIC   
 CRYSTAL CLASS  (GROTH - 1921)        :  TRICLINIC PEDIAL                     

 SPACE GROUP (NONCENTROSYMMETRIC)     :  P 1             

 LATTICE PARAMETERS  (ANGSTROMS AND DEGREES) - CONVENTIONAL CELL
        A           B           C        ALPHA        BETA       GAMMA
    10.85300    10.63950    21.18410    90.00000    90.00000    90.00000


 NUMBER OF IRREDUCIBLE ATOMS IN THE CONVENTIONAL CELL:  169

 INPUT COORDINATES

 ATOM AT. N.              COORDINATES
   1   1     1.992660000000E-01  1.819150000000E-01  1.016769000000E+00
   2   1     7.535060000000E-01  8.963320000000E-01  9.341030000000E-01
   3   1     7.196380000000E-01  8.257600000000E-01  3.505300000000E-02
   4   1     8.254010000000E-01  7.215040000000E-01  5.476300000000E-02
   5   1     1.869010000000E-01  1.996320000000E-01  5.266240000000E-01
   6   1     6.492420000000E-01  1.619460000000E-01  5.552810000000E-01
   7   1     7.020830000000E-01  9.884440000000E-01  6.893580000000E-01
   8   1     6.859480000000E-01  3.663000000000E-03  8.600180000000E-01
   9   1     4.947560000000E-01  1.074220000000E-01  8.855020000000E-01
  10   1     8.385010000000E-01  5.471500000000E-01  6.087810000000E-01
  11   1     4.941640000000E-01  7.647390000000E-01  6.647900000000E-01
  12   1     1.596070000000E-01  6.581580000000E-01  2.196500000000E-02
  13   1     9.141140000000E-01  3.511260000000E-01  5.310340000000E-01
  14   1     2.901090000000E-01  8.754500000000E-02  9.268710000000E-01
  15   1     3.326070000000E-01  6.523130000000E-01  8.317190000000E-01
  16   1     8.241530000000E-01  2.130800000000E-02  9.802390000000E-01
  17   1     4.169520000000E-01  9.818580000000E-01  8.791680000000E-01
  18   1     3.335540000000E-01  8.065710000000E-01  8.752070000000E-01
  19   1     3.328780000000E-01  4.895630000000E-01  7.708190000000E-01
  20   1     7.965680000000E-01  1.061186000000E+00  5.770810000000E-01
  21   1     6.545460000000E-01  9.100810000000E-01  5.771890000000E-01
  22   8     5.132160000000E-01  3.322530000000E-01  5.946170000000E-01
  23   8     7.401600000000E-01  4.321540000000E-01  5.454330000000E-01
  24   8     1.571800000000E-01  5.012800000000E-02  6.200030000000E-01
  25   8     5.390410000000E-01  5.686950000000E-01  5.665770000000E-01
  26   8     1.004406000000E+00  6.801700000000E-01  6.567290000000E-01
  27   8     3.284140000000E-01  3.141170000000E-01  5.160370000000E-01
  28   8     9.127000000000E-01  9.516400000000E-02  6.551880000000E-01
  29   8     4.436700000000E-02  5.943300000000E-02  5.031290000000E-01
  30   8     4.968410000000E-01  8.025510000000E-01  6.232040000000E-01
  31   8     2.041400000000E-02  4.130220000000E-01  6.489020000000E-01
  32   8     2.246060000000E-01  8.081310000000E-01  6.304320000000E-01
  33   8     6.764600000000E-01  4.484440000000E-01  6.609250000000E-01
  34   8     1.339090000000E-01  6.298310000000E-01  5.547350000000E-01
  35   8     9.549980000000E-01  9.006500000000E-01  5.827140000000E-01
  36   8     7.051540000000E-01  7.425250000000E-01  5.499280000000E-01
  37   8     4.800000000000E-01  7.978410000000E-01  5.014290000000E-01
  38   8     3.793890000000E-01  1.229740000000E-01  5.967680000000E-01
  39   8     2.582800000000E-01  8.679270000000E-01  7.838830000000E-01
  40   8     2.692260000000E-01  3.374690000000E-01  6.320940000000E-01
  41   8     1.819160000000E-01  2.530600000000E-01  8.582570000000E-01
  42   8     2.068090000000E-01  5.591490000000E-01  6.722270000000E-01
  43   8     8.293740000000E-01  3.266380000000E-01  9.739340000000E-01
  44   8     3.538530000000E-01  9.430300000000E-02  8.097980000000E-01
  45   8     6.808820000000E-01  2.049560000000E-01  6.945350000000E-01
  46   8     1.385890000000E-01  6.985270000000E-01  8.923720000000E-01
  47   8     8.390230000000E-01  1.241700000000E-01  7.717540000000E-01
  48   8     4.899990000000E-01  4.993530000000E-01  8.631580000000E-01
  49   8     1.425230000000E-01  4.990320000000E-01  8.171590000000E-01
  50   8     5.721600000000E-02  9.173190000000E-01  7.045990000000E-01
  51   8     9.297940000000E-01  8.823700000000E-01  1.005875000000E+00
  52   8     8.628330000000E-01  5.927080000000E-01  7.362940000000E-01
  53   8     4.972000000000E-01  6.496340000000E-01  7.699780000000E-01
  54   8     8.281660000000E-01  8.472440000000E-01  7.121030000000E-01
  55   8     4.928350000000E-01  9.578870000000E-01  9.807990000000E-01
  56   8     5.324270000000E-01  6.334740000000E-01  3.526600000000E-02
  57   8     5.116520000000E-01  8.923370000000E-01  7.821870000000E-01
  58   8     5.492310000000E-01  7.929690000000E-01  8.898070000000E-01
  59   8     8.865460000000E-01  1.405750000000E-01  8.888340000000E-01
  60   8     5.220780000000E-01  4.112420000000E-01  9.770990000000E-01
  61   8     6.970750000000E-01  2.413460000000E-01  8.603170000000E-01
  62   8     6.120600000000E-02  9.956490000000E-01  8.233000000000E-01
  63   8     7.047400000000E-02  6.321200000000E-02  9.508870000000E-01
  64   8     3.211000000000E-01  5.456800000000E-01  9.424520000000E-01
  65   8     9.268120000000E-01  6.101220000000E-01  8.477730000000E-01
  66   8     6.643500000000E-01  1.441040000000E-01  9.712380000000E-01
  67   8     1.629960000000E-01  3.350590000000E-01  7.408840000000E-01
  68   8     9.614320000000E-01  3.304770000000E-01  8.269710000000E-01
  69   8     3.633590000000E-01  9.984480000000E-01  6.950830000000E-01
  70   8     5.388240000000E-01  3.959680000000E-01  7.542150000000E-01
  71   8     7.740990000000E-01  4.095060000000E-01  7.792820000000E-01
  72   8     7.113570000000E-01  7.088600000000E-01  8.114970000000E-01
  73   8     7.419070000000E-01  5.159710000000E-01  8.837610000000E-01
  74   8     4.669400000000E-02  7.483860000000E-01  7.783190000000E-01
  75   8     9.396500000000E-01  5.568020000000E-01  9.664250000000E-01
  76   8     3.500640000000E-01  7.522300000000E-01  9.655080000000E-01
  77   8     4.211170000000E-01  2.766600000000E-01  8.809720000000E-01
  78  14     1.802300000000E-02  1.281000000000E-02  2.093700000000E-02
  79  14     2.945100000000E-01  2.876530000000E-01  2.128600000000E-02
  80  14     1.698760000000E-01  4.159650000000E-01  8.867200000000E-02
  81  14     4.303480000000E-01  1.742140000000E-01  8.967500000000E-02
  82  14     5.062400000000E-02  3.000110000000E-01  1.634360000000E-01
  83  14     2.950730000000E-01  5.338400000000E-02  1.536730000000E-01
  84  14     1.773510000000E-01  1.751620000000E-01  2.265150000000E-01
  85  14     4.110580000000E-01  4.186530000000E-01  2.255540000000E-01
  86  14     3.955000000000E-03  5.333550000000E-01  3.836100000000E-02
  87  14     2.584600000000E-01  7.504530000000E-01  3.944800000000E-02
  88  14     1.703010000000E-01  9.259200000000E-01  8.789200000000E-02
  89  14     4.332980000000E-01  6.812430000000E-01  9.220500000000E-02
  90  14     4.825200000000E-02  8.099240000000E-01  1.606160000000E-01
  91  14     3.028630000000E-01  5.429130000000E-01  1.517190000000E-01
  92  14     1.769480000000E-01  6.724010000000E-01  2.183530000000E-01
  93  14     4.144440000000E-01  9.286310000000E-01  2.228630000000E-01
  94  14     5.762970000000E-01  3.905400000000E-02  3.057800000000E-02
  95  14     8.707390000000E-01  3.523470000000E-01  6.006300000000E-02
  96  14     6.852160000000E-01  4.110450000000E-01  1.080280000000E-01
  97  14     9.393300000000E-01  1.599070000000E-01  9.732300000000E-02
  98  14     5.437970000000E-01  2.907620000000E-01  1.640930000000E-01
  99  14     7.961910000000E-01  4.526800000000E-02  1.594610000000E-01
 100  14     6.739860000000E-01  1.714590000000E-01  2.271500000000E-01
 101  14     9.192130000000E-01  4.249770000000E-01  2.270630000000E-01
 102  14     6.134990000000E-01  5.064210000000E-01  1.829500000000E-02
 103  14     8.761980000000E-01  8.254050000000E-01  9.368460000000E-01
 104  14     6.996030000000E-01  8.984590000000E-01  9.358700000000E-02
 105  14     9.118350000000E-01  6.843930000000E-01  1.049780000000E-01
 106  14     5.488610000000E-01  8.093790000000E-01  1.595980000000E-01
 107  14     7.905480000000E-01  5.580530000000E-01  1.684070000000E-01
 108  14     6.647330000000E-01  6.854440000000E-01  2.291860000000E-01
 109  14     9.201520000000E-01  9.278700000000E-01  2.291410000000E-01
 110  14     4.828700000000E-02  5.485000000000E-02  2.919140000000E-01
 111  14     2.918480000000E-01  2.969560000000E-01  2.978620000000E-01
 112  14     5.031900000000E-02  5.529650000000E-01  2.863140000000E-01
 113  14     2.919480000000E-01  8.001630000000E-01  2.881850000000E-01
 114  14     5.423300000000E-01  4.980700000000E-02  2.893230000000E-01
 115  14     7.948520000000E-01  3.020650000000E-01  2.926260000000E-01
 116  14     5.351030000000E-01  5.530930000000E-01  2.859660000000E-01
 117  14     7.923830000000E-01  8.024260000000E-01  2.965290000000E-01
 118  14     1.586560000000E-01  4.279420000000E-01  3.595100000000E-01
 119  14     4.209610000000E-01  1.682740000000E-01  3.612410000000E-01
 120  14     2.575500000000E-02  3.193050000000E-01  4.315850000000E-01
 121  14     3.103210000000E-01  2.410600000000E-02  4.292210000000E-01
 122  14     1.437090000000E-01  1.477180000000E-01  4.658010000000E-01
 123  14     4.023020000000E-01  3.948110000000E-01  4.612510000000E-01
 124  14     1.708060000000E-01  9.246460000000E-01  3.570360000000E-01
 125  14     4.166930000000E-01  6.768650000000E-01  3.547120000000E-01
 126  14     4.639900000000E-02  7.987190000000E-01  4.241670000000E-01
 127  14     2.874730000000E-01  5.600130000000E-01  4.208600000000E-01
 128  14     1.931370000000E-01  7.050570000000E-01  4.916020000000E-01
 129  14     3.345480000000E-01  8.752700000000E-01  5.234000000000E-01
 130  14     6.620290000000E-01  4.343580000000E-01  3.503130000000E-01
 131  14     9.249530000000E-01  1.815270000000E-01  3.577150000000E-01
 132  14     5.673760000000E-01  2.901840000000E-01  4.182250000000E-01
 133  14     8.002420000000E-01  5.560200000000E-02  4.202970000000E-01
 134  14     6.964180000000E-01  1.844470000000E-01  4.904720000000E-01
 135  14     8.138430000000E-01  3.710260000000E-01  4.810600000000E-01
 136  14     6.638310000000E-01  9.351560000000E-01  3.597920000000E-01
 137  14     9.285730000000E-01  6.723040000000E-01  3.551720000000E-01
 138  14     5.504640000000E-01  7.898120000000E-01  4.227100000000E-01
 139  14     7.934530000000E-01  5.506670000000E-01  4.161290000000E-01
 140  14     7.462710000000E-01  7.452920000000E-01  4.659290000000E-01
 141  14     9.364050000000E-01  9.428080000000E-01  4.868000000000E-01
 142  14     3.740590000000E-01  2.731650000000E-01  5.882830000000E-01
 143  14     2.278700000000E-02  9.930450000000E-01  6.386440000000E-01
 144  14     1.542480000000E-01  6.772530000000E-01  6.285230000000E-01
 145  14     6.178820000000E-01  4.432130000000E-01  5.898070000000E-01
 146  14     3.009970000000E-01  9.949790000000E-01  6.197580000000E-01
 147  14     5.560090000000E-01  7.229020000000E-01  5.637320000000E-01
 148  14     7.872650000000E-01  9.239450000000E-01  5.647090000000E-01
 149  14     3.104020000000E-01  1.750130000000E-01  8.737380000000E-01
 150  14     7.950860000000E-01  5.033880000000E-01  9.535790000000E-01
 151  14     3.770140000000E-01  9.655690000000E-01  7.681990000000E-01
 152  14     7.854880000000E-01  9.337700000000E-02  7.005600000000E-01
 153  14     6.788500000000E-02  6.268750000000E-01  8.374410000000E-01
 154  14     9.258240000000E-01  7.455870000000E-01  7.223160000000E-01
 155  14     5.647590000000E-01  7.576150000000E-01  8.146330000000E-01
 156  14     2.954480000000E-01  6.735940000000E-01  8.987570000000E-01
 157  14     8.367850000000E-01  2.327980000000E-01  8.257560000000E-01
 158  14     8.278530000000E-01  1.636050000000E-01  9.717430000000E-01
 159  14     4.205980000000E-01  4.321380000000E-01  9.228280000000E-01
 160  14     1.093940000000E-01  3.490040000000E-01  8.134750000000E-01
 161  14     1.167300000000E-01  8.995780000000E-01  7.741280000000E-01
 162  14     6.311610000000E-01  1.180000000000E-01  8.924660000000E-01
 163  14     6.720790000000E-01  3.603410000000E-01  7.241240000000E-01
 164  14     9.259560000000E-01  5.342360000000E-01  6.609220000000E-01
 165  14     9.847920000000E-01  8.503000000000E-03  8.927360000000E-01
 166  14     1.704140000000E-01  4.105100000000E-01  6.749110000000E-01
 167  14     4.354930000000E-01  8.753490000000E-01  9.242350000000E-01
 168  14     4.589810000000E-01  4.975650000000E-01  7.885680000000E-01
 169  14     8.037570000000E-01  5.452020000000E-01  8.115590000000E-01

 *******************************************************************************

 << INFORMATION >>: FROM NOW ON, ALL COORDINATES REFER TO THE PRIMITIVE CELL

 *******************************************************************************

 LATTICE PARAMETERS  (ANGSTROMS AND DEGREES) - PRIMITIVE CELL
       A          B          C         ALPHA     BETA     GAMMA        VOLUME
   10.85300   10.63950   21.18410    90.00000  90.00000  90.00000   2446.138481

 COORDINATES OF THE EQUIVALENT ATOMS (FRACTIONAL UNITS)

 N. ATOM EQUIV AT. N.          X                  Y                  Z

   1   1   1    1 H     1.99266000000E-01  1.81915000000E-01  1.67690000000E-02

   2   2   1    1 H    -2.46494000000E-01 -1.03668000000E-01 -6.58970000000E-02

   3   3   1    1 H    -2.80362000000E-01 -1.74240000000E-01  3.50530000000E-02

   4   4   1    1 H    -1.74599000000E-01 -2.78496000000E-01  5.47630000000E-02

   5   5   1    1 H     1.86901000000E-01  1.99632000000E-01 -4.73376000000E-01

   6   6   1    1 H    -3.50758000000E-01  1.61946000000E-01 -4.44719000000E-01

   7   7   1    1 H    -2.97917000000E-01 -1.15560000000E-02 -3.10642000000E-01

   8   8   1    1 H    -3.14052000000E-01  3.66300000000E-03 -1.39982000000E-01

   9   9   1    1 H     4.94756000000E-01  1.07422000000E-01 -1.14498000000E-01

  10  10   1    1 H    -1.61499000000E-01 -4.52850000000E-01 -3.91219000000E-01

  11  11   1    1 H     4.94164000000E-01 -2.35261000000E-01 -3.35210000000E-01

  12  12   1    1 H     1.59607000000E-01 -3.41842000000E-01  2.19650000000E-02

  13  13   1    1 H    -8.58860000000E-02  3.51126000000E-01 -4.68966000000E-01

  14  14   1    1 H     2.90109000000E-01  8.75450000000E-02 -7.31290000000E-02

  15  15   1    1 H     3.32607000000E-01 -3.47687000000E-01 -1.68281000000E-01

  16  16   1    1 H    -1.75847000000E-01  2.13080000000E-02 -1.97610000000E-02

  17  17   1    1 H     4.16952000000E-01 -1.81420000000E-02 -1.20832000000E-01

  18  18   1    1 H     3.33554000000E-01 -1.93429000000E-01 -1.24793000000E-01

  19  19   1    1 H     3.32878000000E-01  4.89563000000E-01 -2.29181000000E-01

  20  20   1    1 H    -2.03432000000E-01  6.11860000000E-02 -4.22919000000E-01

  21  21   1    1 H    -3.45454000000E-01 -8.99190000000E-02 -4.22811000000E-01

  22  22   1    8 O    -4.86784000000E-01  3.32253000000E-01 -4.05383000000E-01

  23  23   1    8 O    -2.59840000000E-01  4.32154000000E-01 -4.54567000000E-01

  24  24   1    8 O     1.57180000000E-01  5.01280000000E-02 -3.79997000000E-01

  25  25   1    8 O    -4.60959000000E-01 -4.31305000000E-01 -4.33423000000E-01

  26  26   1    8 O     4.40600000000E-03 -3.19830000000E-01 -3.43271000000E-01

  27  27   1    8 O     3.28414000000E-01  3.14117000000E-01 -4.83963000000E-01

  28  28   1    8 O    -8.73000000000E-02  9.51640000000E-02 -3.44812000000E-01

  29  29   1    8 O     4.43670000000E-02  5.94330000000E-02 -4.96871000000E-01

  30  30   1    8 O     4.96841000000E-01 -1.97449000000E-01 -3.76796000000E-01

  31  31   1    8 O     2.04140000000E-02  4.13022000000E-01 -3.51098000000E-01

  32  32   1    8 O     2.24606000000E-01 -1.91869000000E-01 -3.69568000000E-01

  33  33   1    8 O    -3.23540000000E-01  4.48444000000E-01 -3.39075000000E-01

  34  34   1    8 O     1.33909000000E-01 -3.70169000000E-01 -4.45265000000E-01

  35  35   1    8 O    -4.50020000000E-02 -9.93500000000E-02 -4.17286000000E-01

  36  36   1    8 O    -2.94846000000E-01 -2.57475000000E-01 -4.50072000000E-01

  37  37   1    8 O     4.80000000000E-01 -2.02159000000E-01 -4.98571000000E-01

  38  38   1    8 O     3.79389000000E-01  1.22974000000E-01 -4.03232000000E-01

  39  39   1    8 O     2.58280000000E-01 -1.32073000000E-01 -2.16117000000E-01

  40  40   1    8 O     2.69226000000E-01  3.37469000000E-01 -3.67906000000E-01

  41  41   1    8 O     1.81916000000E-01  2.53060000000E-01 -1.41743000000E-01

  42  42   1    8 O     2.06809000000E-01 -4.40851000000E-01 -3.27773000000E-01

  43  43   1    8 O    -1.70626000000E-01  3.26638000000E-01 -2.60660000000E-02

  44  44   1    8 O     3.53853000000E-01  9.43030000000E-02 -1.90202000000E-01

  45  45   1    8 O    -3.19118000000E-01  2.04956000000E-01 -3.05465000000E-01

  46  46   1    8 O     1.38589000000E-01 -3.01473000000E-01 -1.07628000000E-01

  47  47   1    8 O    -1.60977000000E-01  1.24170000000E-01 -2.28246000000E-01

  48  48   1    8 O     4.89999000000E-01  4.99353000000E-01 -1.36842000000E-01

  49  49   1    8 O     1.42523000000E-01  4.99032000000E-01 -1.82841000000E-01

  50  50   1    8 O     5.72160000000E-02 -8.26810000000E-02 -2.95401000000E-01

  51  51   1    8 O    -7.02060000000E-02 -1.17630000000E-01  5.87500000000E-03

  52  52   1    8 O    -1.37167000000E-01 -4.07292000000E-01 -2.63706000000E-01

  53  53   1    8 O     4.97200000000E-01 -3.50366000000E-01 -2.30022000000E-01

  54  54   1    8 O    -1.71834000000E-01 -1.52756000000E-01 -2.87897000000E-01

  55  55   1    8 O     4.92835000000E-01 -4.21130000000E-02 -1.92010000000E-02

  56  56   1    8 O    -4.67573000000E-01 -3.66526000000E-01  3.52660000000E-02

  57  57   1    8 O    -4.88348000000E-01 -1.07663000000E-01 -2.17813000000E-01

  58  58   1    8 O    -4.50769000000E-01 -2.07031000000E-01 -1.10193000000E-01

  59  59   1    8 O    -1.13454000000E-01  1.40575000000E-01 -1.11166000000E-01

  60  60   1    8 O    -4.77922000000E-01  4.11242000000E-01 -2.29010000000E-02

  61  61   1    8 O    -3.02925000000E-01  2.41346000000E-01 -1.39683000000E-01

  62  62   1    8 O     6.12060000000E-02 -4.35100000000E-03 -1.76700000000E-01

  63  63   1    8 O     7.04740000000E-02  6.32120000000E-02 -4.91130000000E-02

  64  64   1    8 O     3.21100000000E-01 -4.54320000000E-01 -5.75480000000E-02

  65  65   1    8 O    -7.31880000000E-02 -3.89878000000E-01 -1.52227000000E-01

  66  66   1    8 O    -3.35650000000E-01  1.44104000000E-01 -2.87620000000E-02

  67  67   1    8 O     1.62996000000E-01  3.35059000000E-01 -2.59116000000E-01

  68  68   1    8 O    -3.85680000000E-02  3.30477000000E-01 -1.73029000000E-01

  69  69   1    8 O     3.63359000000E-01 -1.55200000000E-03 -3.04917000000E-01

  70  70   1    8 O    -4.61176000000E-01  3.95968000000E-01 -2.45785000000E-01

  71  71   1    8 O    -2.25901000000E-01  4.09506000000E-01 -2.20718000000E-01

  72  72   1    8 O    -2.88643000000E-01 -2.91140000000E-01 -1.88503000000E-01

  73  73   1    8 O    -2.58093000000E-01 -4.84029000000E-01 -1.16239000000E-01

  74  74   1    8 O     4.66940000000E-02 -2.51614000000E-01 -2.21681000000E-01

  75  75   1    8 O    -6.03500000000E-02 -4.43198000000E-01 -3.35750000000E-02

  76  76   1    8 O     3.50064000000E-01 -2.47770000000E-01 -3.44920000000E-02

  77  77   1    8 O     4.21117000000E-01  2.76660000000E-01 -1.19028000000E-01

  78  78   1   14 SI    1.80230000000E-02  1.28100000000E-02  2.09370000000E-02

  79  79   1   14 SI    2.94510000000E-01  2.87653000000E-01  2.12860000000E-02

  80  80   1   14 SI    1.69876000000E-01  4.15965000000E-01  8.86720000000E-02

  81  81   1   14 SI    4.30348000000E-01  1.74214000000E-01  8.96750000000E-02

  82  82   1   14 SI    5.06240000000E-02  3.00011000000E-01  1.63436000000E-01

  83  83   1   14 SI    2.95073000000E-01  5.33840000000E-02  1.53673000000E-01

  84  84   1   14 SI    1.77351000000E-01  1.75162000000E-01  2.26515000000E-01

  85  85   1   14 SI    4.11058000000E-01  4.18653000000E-01  2.25554000000E-01

  86  86   1   14 SI    3.95500000000E-03 -4.66645000000E-01  3.83610000000E-02

  87  87   1   14 SI    2.58460000000E-01 -2.49547000000E-01  3.94480000000E-02

  88  88   1   14 SI    1.70301000000E-01 -7.40800000000E-02  8.78920000000E-02

  89  89   1   14 SI    4.33298000000E-01 -3.18757000000E-01  9.22050000000E-02

  90  90   1   14 SI    4.82520000000E-02 -1.90076000000E-01  1.60616000000E-01

  91  91   1   14 SI    3.02863000000E-01 -4.57087000000E-01  1.51719000000E-01

  92  92   1   14 SI    1.76948000000E-01 -3.27599000000E-01  2.18353000000E-01

  93  93   1   14 SI    4.14444000000E-01 -7.13690000000E-02  2.22863000000E-01

  94  94   1   14 SI   -4.23703000000E-01  3.90540000000E-02  3.05780000000E-02

  95  95   1   14 SI   -1.29261000000E-01  3.52347000000E-01  6.00630000000E-02

  96  96   1   14 SI   -3.14784000000E-01  4.11045000000E-01  1.08028000000E-01

  97  97   1   14 SI   -6.06700000000E-02  1.59907000000E-01  9.73230000000E-02

  98  98   1   14 SI   -4.56203000000E-01  2.90762000000E-01  1.64093000000E-01

  99  99   1   14 SI   -2.03809000000E-01  4.52680000000E-02  1.59461000000E-01

 100 100   1   14 SI   -3.26014000000E-01  1.71459000000E-01  2.27150000000E-01

 101 101   1   14 SI   -8.07870000000E-02  4.24977000000E-01  2.27063000000E-01

 102 102   1   14 SI   -3.86501000000E-01 -4.93579000000E-01  1.82950000000E-02

 103 103   1   14 SI   -1.23802000000E-01 -1.74595000000E-01 -6.31540000000E-02

 104 104   1   14 SI   -3.00397000000E-01 -1.01541000000E-01  9.35870000000E-02

 105 105   1   14 SI   -8.81650000000E-02 -3.15607000000E-01  1.04978000000E-01

 106 106   1   14 SI   -4.51139000000E-01 -1.90621000000E-01  1.59598000000E-01

 107 107   1   14 SI   -2.09452000000E-01 -4.41947000000E-01  1.68407000000E-01

 108 108   1   14 SI   -3.35267000000E-01 -3.14556000000E-01  2.29186000000E-01

 109 109   1   14 SI   -7.98480000000E-02 -7.21300000000E-02  2.29141000000E-01

 110 110   1   14 SI    4.82870000000E-02  5.48500000000E-02  2.91914000000E-01

 111 111   1   14 SI    2.91848000000E-01  2.96956000000E-01  2.97862000000E-01

 112 112   1   14 SI    5.03190000000E-02 -4.47035000000E-01  2.86314000000E-01

 113 113   1   14 SI    2.91948000000E-01 -1.99837000000E-01  2.88185000000E-01

 114 114   1   14 SI   -4.57670000000E-01  4.98070000000E-02  2.89323000000E-01

 115 115   1   14 SI   -2.05148000000E-01  3.02065000000E-01  2.92626000000E-01

 116 116   1   14 SI   -4.64897000000E-01 -4.46907000000E-01  2.85966000000E-01

 117 117   1   14 SI   -2.07617000000E-01 -1.97574000000E-01  2.96529000000E-01

 118 118   1   14 SI    1.58656000000E-01  4.27942000000E-01  3.59510000000E-01

 119 119   1   14 SI    4.20961000000E-01  1.68274000000E-01  3.61241000000E-01

 120 120   1   14 SI    2.57550000000E-02  3.19305000000E-01  4.31585000000E-01

 121 121   1   14 SI    3.10321000000E-01  2.41060000000E-02  4.29221000000E-01

 122 122   1   14 SI    1.43709000000E-01  1.47718000000E-01  4.65801000000E-01

 123 123   1   14 SI    4.02302000000E-01  3.94811000000E-01  4.61251000000E-01

 124 124   1   14 SI    1.70806000000E-01 -7.53540000000E-02  3.57036000000E-01

 125 125   1   14 SI    4.16693000000E-01 -3.23135000000E-01  3.54712000000E-01

 126 126   1   14 SI    4.63990000000E-02 -2.01281000000E-01  4.24167000000E-01

 127 127   1   14 SI    2.87473000000E-01 -4.39987000000E-01  4.20860000000E-01

 128 128   1   14 SI    1.93137000000E-01 -2.94943000000E-01  4.91602000000E-01

 129 129   1   14 SI    3.34548000000E-01 -1.24730000000E-01 -4.76600000000E-01

 130 130   1   14 SI   -3.37971000000E-01  4.34358000000E-01  3.50313000000E-01

 131 131   1   14 SI   -7.50470000000E-02  1.81527000000E-01  3.57715000000E-01

 132 132   1   14 SI   -4.32624000000E-01  2.90184000000E-01  4.18225000000E-01

 133 133   1   14 SI   -1.99758000000E-01  5.56020000000E-02  4.20297000000E-01

 134 134   1   14 SI   -3.03582000000E-01  1.84447000000E-01  4.90472000000E-01

 135 135   1   14 SI   -1.86157000000E-01  3.71026000000E-01  4.81060000000E-01

 136 136   1   14 SI   -3.36169000000E-01 -6.48440000000E-02  3.59792000000E-01

 137 137   1   14 SI   -7.14270000000E-02 -3.27696000000E-01  3.55172000000E-01

 138 138   1   14 SI   -4.49536000000E-01 -2.10188000000E-01  4.22710000000E-01

 139 139   1   14 SI   -2.06547000000E-01 -4.49333000000E-01  4.16129000000E-01

 140 140   1   14 SI   -2.53729000000E-01 -2.54708000000E-01  4.65929000000E-01

 141 141   1   14 SI   -6.35950000000E-02 -5.71920000000E-02  4.86800000000E-01

 142 142   1   14 SI    3.74059000000E-01  2.73165000000E-01 -4.11717000000E-01

 143 143   1   14 SI    2.27870000000E-02 -6.95500000000E-03 -3.61356000000E-01

 144 144   1   14 SI    1.54248000000E-01 -3.22747000000E-01 -3.71477000000E-01

 145 145   1   14 SI   -3.82118000000E-01  4.43213000000E-01 -4.10193000000E-01

 146 146   1   14 SI    3.00997000000E-01 -5.02100000000E-03 -3.80242000000E-01

 147 147   1   14 SI   -4.43991000000E-01 -2.77098000000E-01 -4.36268000000E-01

 148 148   1   14 SI   -2.12735000000E-01 -7.60550000000E-02 -4.35291000000E-01

 149 149   1   14 SI    3.10402000000E-01  1.75013000000E-01 -1.26262000000E-01

 150 150   1   14 SI   -2.04914000000E-01 -4.96612000000E-01 -4.64210000000E-02

 151 151   1   14 SI    3.77014000000E-01 -3.44310000000E-02 -2.31801000000E-01

 152 152   1   14 SI   -2.14512000000E-01  9.33770000000E-02 -2.99440000000E-01

 153 153   1   14 SI    6.78850000000E-02 -3.73125000000E-01 -1.62559000000E-01

 154 154   1   14 SI   -7.41760000000E-02 -2.54413000000E-01 -2.77684000000E-01

 155 155   1   14 SI   -4.35241000000E-01 -2.42385000000E-01 -1.85367000000E-01

 156 156   1   14 SI    2.95448000000E-01 -3.26406000000E-01 -1.01243000000E-01

 157 157   1   14 SI   -1.63215000000E-01  2.32798000000E-01 -1.74244000000E-01

 158 158   1   14 SI   -1.72147000000E-01  1.63605000000E-01 -2.82570000000E-02

 159 159   1   14 SI    4.20598000000E-01  4.32138000000E-01 -7.71720000000E-02

 160 160   1   14 SI    1.09394000000E-01  3.49004000000E-01 -1.86525000000E-01

 161 161   1   14 SI    1.16730000000E-01 -1.00422000000E-01 -2.25872000000E-01

 162 162   1   14 SI   -3.68839000000E-01  1.18000000000E-01 -1.07534000000E-01

 163 163   1   14 SI   -3.27921000000E-01  3.60341000000E-01 -2.75876000000E-01

 164 164   1   14 SI   -7.40440000000E-02 -4.65764000000E-01 -3.39078000000E-01

 165 165   1   14 SI   -1.52080000000E-02  8.50300000000E-03 -1.07264000000E-01

 166 166   1   14 SI    1.70414000000E-01  4.10510000000E-01 -3.25089000000E-01

 167 167   1   14 SI    4.35493000000E-01 -1.24651000000E-01 -7.57650000000E-02

 168 168   1   14 SI    4.58981000000E-01  4.97565000000E-01 -2.11432000000E-01

 169 169   1   14 SI   -1.96243000000E-01 -4.54798000000E-01 -1.88441000000E-01

 NUMBER OF SYMMETRY OPERATORS         :    1
 *******************************************************************************
 * GEOMETRY EDITING - INPUT COORDINATES ARE GIVEN IN ANGSTROM         
 *******************************************************************************

 GCALCO - MAX INDICES DIRECT LATTICE VECTOR    18    19     9
 NO.OF VECTORS CREATED 6999 STARS 1060 RMAX   301.97758 BOHR

 GEOMETRY FOR WAVE FUNCTION - DIMENSIONALITY OF THE SYSTEM    3
 (NON PERIODIC DIRECTION: LATTICE PARAMETER FORMALLY SET TO 500)
 *******************************************************************************
 LATTICE PARAMETERS (ANGSTROMS AND DEGREES) - BOHR = 0.5291772083 ANGSTROM
 PRIMITIVE CELL - CENTRING CODE 1/0 VOLUME=  2446.138481 - DENSITY  2.370 g/cm^3
         A              B              C           ALPHA      BETA       GAMMA 
    10.85300000    10.63950000    21.18410000    90.000000  90.000000  90.000000
 *******************************************************************************
 ATOMS IN THE ASYMMETRIC UNIT  169 - ATOMS IN THE UNIT CELL:  169
     ATOM              X/A                 Y/B                 Z/C    
 *******************************************************************************
   1 T   1 H     1.992660000000E-01  1.819150000000E-01  1.676900000000E-02
   2 T   1 H    -2.464940000000E-01 -1.036680000000E-01 -6.589700000000E-02
   3 T   1 H    -2.803620000000E-01 -1.742400000000E-01  3.505300000000E-02
   4 T   1 H    -1.745990000000E-01 -2.784960000000E-01  5.476300000000E-02
   5 T   1 H     1.869010000000E-01  1.996320000000E-01 -4.733760000000E-01
   6 T   1 H    -3.507580000000E-01  1.619460000000E-01 -4.447190000000E-01
   7 T   1 H    -2.979170000000E-01 -1.155600000000E-02 -3.106420000000E-01
   8 T   1 H    -3.140520000000E-01  3.663000000000E-03 -1.399820000000E-01
   9 T   1 H     4.947560000000E-01  1.074220000000E-01 -1.144980000000E-01
  10 T   1 H    -1.614990000000E-01 -4.528500000000E-01 -3.912190000000E-01
  11 T   1 H     4.941640000000E-01 -2.352610000000E-01 -3.352100000000E-01
  12 T   1 H     1.596070000000E-01 -3.418420000000E-01  2.196500000000E-02
  13 T   1 H    -8.588600000000E-02  3.511260000000E-01 -4.689660000000E-01
  14 T   1 H     2.901090000000E-01  8.754500000000E-02 -7.312900000000E-02
  15 T   1 H     3.326070000000E-01 -3.476870000000E-01 -1.682810000000E-01
  16 T   1 H    -1.758470000000E-01  2.130800000000E-02 -1.976100000000E-02
  17 T   1 H     4.169520000000E-01 -1.814200000000E-02 -1.208320000000E-01
  18 T   1 H     3.335540000000E-01 -1.934290000000E-01 -1.247930000000E-01
  19 T   1 H     3.328780000000E-01  4.895630000000E-01 -2.291810000000E-01
  20 T   1 H    -2.034320000000E-01  6.118600000000E-02 -4.229190000000E-01
  21 T   1 H    -3.454540000000E-01 -8.991900000000E-02 -4.228110000000E-01
  22 T   8 O    -4.867840000000E-01  3.322530000000E-01 -4.053830000000E-01
  23 T   8 O    -2.598400000000E-01  4.321540000000E-01 -4.545670000000E-01
  24 T   8 O     1.571800000000E-01  5.012800000000E-02 -3.799970000000E-01
  25 T   8 O    -4.609590000000E-01 -4.313050000000E-01 -4.334230000000E-01
  26 T   8 O     4.406000000000E-03 -3.198300000000E-01 -3.432710000000E-01
  27 T   8 O     3.284140000000E-01  3.141170000000E-01 -4.839630000000E-01
  28 T   8 O    -8.730000000000E-02  9.516400000000E-02 -3.448120000000E-01
  29 T   8 O     4.436700000000E-02  5.943300000000E-02 -4.968710000000E-01
  30 T   8 O     4.968410000000E-01 -1.974490000000E-01 -3.767960000000E-01
  31 T   8 O     2.041400000000E-02  4.130220000000E-01 -3.510980000000E-01
  32 T   8 O     2.246060000000E-01 -1.918690000000E-01 -3.695680000000E-01
  33 T   8 O    -3.235400000000E-01  4.484440000000E-01 -3.390750000000E-01
  34 T   8 O     1.339090000000E-01 -3.701690000000E-01 -4.452650000000E-01
  35 T   8 O    -4.500200000000E-02 -9.935000000000E-02 -4.172860000000E-01
  36 T   8 O    -2.948460000000E-01 -2.574750000000E-01 -4.500720000000E-01
  37 T   8 O     4.800000000000E-01 -2.021590000000E-01 -4.985710000000E-01
  38 T   8 O     3.793890000000E-01  1.229740000000E-01 -4.032320000000E-01
  39 T   8 O     2.582800000000E-01 -1.320730000000E-01 -2.161170000000E-01
  40 T   8 O     2.692260000000E-01  3.374690000000E-01 -3.679060000000E-01
  41 T   8 O     1.819160000000E-01  2.530600000000E-01 -1.417430000000E-01
  42 T   8 O     2.068090000000E-01 -4.408510000000E-01 -3.277730000000E-01
  43 T   8 O    -1.706260000000E-01  3.266380000000E-01 -2.606600000000E-02
  44 T   8 O     3.538530000000E-01  9.430300000000E-02 -1.902020000000E-01
  45 T   8 O    -3.191180000000E-01  2.049560000000E-01 -3.054650000000E-01
  46 T   8 O     1.385890000000E-01 -3.014730000000E-01 -1.076280000000E-01
  47 T   8 O    -1.609770000000E-01  1.241700000000E-01 -2.282460000000E-01
  48 T   8 O     4.899990000000E-01  4.993530000000E-01 -1.368420000000E-01
  49 T   8 O     1.425230000000E-01  4.990320000000E-01 -1.828410000000E-01
  50 T   8 O     5.721600000000E-02 -8.268100000000E-02 -2.954010000000E-01
  51 T   8 O    -7.020600000000E-02 -1.176300000000E-01  5.875000000000E-03
  52 T   8 O    -1.371670000000E-01 -4.072920000000E-01 -2.637060000000E-01
  53 T   8 O     4.972000000000E-01 -3.503660000000E-01 -2.300220000000E-01
  54 T   8 O    -1.718340000000E-01 -1.527560000000E-01 -2.878970000000E-01
  55 T   8 O     4.928350000000E-01 -4.211300000000E-02 -1.920100000000E-02
  56 T   8 O    -4.675730000000E-01 -3.665260000000E-01  3.526600000000E-02
  57 T   8 O    -4.883480000000E-01 -1.076630000000E-01 -2.178130000000E-01
  58 T   8 O    -4.507690000000E-01 -2.070310000000E-01 -1.101930000000E-01
  59 T   8 O    -1.134540000000E-01  1.405750000000E-01 -1.111660000000E-01
  60 T   8 O    -4.779220000000E-01  4.112420000000E-01 -2.290100000000E-02
  61 T   8 O    -3.029250000000E-01  2.413460000000E-01 -1.396830000000E-01
  62 T   8 O     6.120600000000E-02 -4.351000000000E-03 -1.767000000000E-01
  63 T   8 O     7.047400000000E-02  6.321200000000E-02 -4.911300000000E-02
  64 T   8 O     3.211000000000E-01 -4.543200000000E-01 -5.754800000000E-02
  65 T   8 O    -7.318800000000E-02 -3.898780000000E-01 -1.522270000000E-01
  66 T   8 O    -3.356500000000E-01  1.441040000000E-01 -2.876200000000E-02
  67 T   8 O     1.629960000000E-01  3.350590000000E-01 -2.591160000000E-01
  68 T   8 O    -3.856800000000E-02  3.304770000000E-01 -1.730290000000E-01
  69 T   8 O     3.633590000000E-01 -1.552000000000E-03 -3.049170000000E-01
  70 T   8 O    -4.611760000000E-01  3.959680000000E-01 -2.457850000000E-01
  71 T   8 O    -2.259010000000E-01  4.095060000000E-01 -2.207180000000E-01
  72 T   8 O    -2.886430000000E-01 -2.911400000000E-01 -1.885030000000E-01
  73 T   8 O    -2.580930000000E-01 -4.840290000000E-01 -1.162390000000E-01
  74 T   8 O     4.669400000000E-02 -2.516140000000E-01 -2.216810000000E-01
  75 T   8 O    -6.035000000000E-02 -4.431980000000E-01 -3.357500000000E-02
  76 T   8 O     3.500640000000E-01 -2.477700000000E-01 -3.449200000000E-02
  77 T   8 O     4.211170000000E-01  2.766600000000E-01 -1.190280000000E-01
  78 T  14 SI    1.802300000000E-02  1.281000000000E-02  2.093700000000E-02
  79 T  14 SI    2.945100000000E-01  2.876530000000E-01  2.128600000000E-02
  80 T  14 SI    1.698760000000E-01  4.159650000000E-01  8.867200000000E-02
  81 T  14 SI    4.303480000000E-01  1.742140000000E-01  8.967500000000E-02
  82 T  14 SI    5.062400000000E-02  3.000110000000E-01  1.634360000000E-01
  83 T  14 SI    2.950730000000E-01  5.338400000000E-02  1.536730000000E-01
  84 T  14 SI    1.773510000000E-01  1.751620000000E-01  2.265150000000E-01
  85 T  14 SI    4.110580000000E-01  4.186530000000E-01  2.255540000000E-01
  86 T  14 SI    3.955000000000E-03 -4.666450000000E-01  3.836100000000E-02
  87 T  14 SI    2.584600000000E-01 -2.495470000000E-01  3.944800000000E-02
  88 T  14 SI    1.703010000000E-01 -7.408000000000E-02  8.789200000000E-02
  89 T  14 SI    4.332980000000E-01 -3.187570000000E-01  9.220500000000E-02
  90 T  14 SI    4.825200000000E-02 -1.900760000000E-01  1.606160000000E-01
  91 T  14 SI    3.028630000000E-01 -4.570870000000E-01  1.517190000000E-01
  92 T  14 SI    1.769480000000E-01 -3.275990000000E-01  2.183530000000E-01
  93 T  14 SI    4.144440000000E-01 -7.136900000000E-02  2.228630000000E-01
  94 T  14 SI   -4.237030000000E-01  3.905400000000E-02  3.057800000000E-02
  95 T  14 SI   -1.292610000000E-01  3.523470000000E-01  6.006300000000E-02
  96 T  14 SI   -3.147840000000E-01  4.110450000000E-01  1.080280000000E-01
  97 T  14 SI   -6.067000000000E-02  1.599070000000E-01  9.732300000000E-02
  98 T  14 SI   -4.562030000000E-01  2.907620000000E-01  1.640930000000E-01
  99 T  14 SI   -2.038090000000E-01  4.526800000000E-02  1.594610000000E-01
 100 T  14 SI   -3.260140000000E-01  1.714590000000E-01  2.271500000000E-01
 101 T  14 SI   -8.078700000000E-02  4.249770000000E-01  2.270630000000E-01
 102 T  14 SI   -3.865010000000E-01 -4.935790000000E-01  1.829500000000E-02
 103 T  14 SI   -1.238020000000E-01 -1.745950000000E-01 -6.315400000000E-02
 104 T  14 SI   -3.003970000000E-01 -1.015410000000E-01  9.358700000000E-02
 105 T  14 SI   -8.816500000000E-02 -3.156070000000E-01  1.049780000000E-01
 106 T  14 SI   -4.511390000000E-01 -1.906210000000E-01  1.595980000000E-01
 107 T  14 SI   -2.094520000000E-01 -4.419470000000E-01  1.684070000000E-01
 108 T  14 SI   -3.352670000000E-01 -3.145560000000E-01  2.291860000000E-01
 109 T  14 SI   -7.984800000000E-02 -7.213000000000E-02  2.291410000000E-01
 110 T  14 SI    4.828700000000E-02  5.485000000000E-02  2.919140000000E-01
 111 T  14 SI    2.918480000000E-01  2.969560000000E-01  2.978620000000E-01
 112 T  14 SI    5.031900000000E-02 -4.470350000000E-01  2.863140000000E-01
 113 T  14 SI    2.919480000000E-01 -1.998370000000E-01  2.881850000000E-01
 114 T  14 SI   -4.576700000000E-01  4.980700000000E-02  2.893230000000E-01
 115 T  14 SI   -2.051480000000E-01  3.020650000000E-01  2.926260000000E-01
 116 T  14 SI   -4.648970000000E-01 -4.469070000000E-01  2.859660000000E-01
 117 T  14 SI   -2.076170000000E-01 -1.975740000000E-01  2.965290000000E-01
 118 T  14 SI    1.586560000000E-01  4.279420000000E-01  3.595100000000E-01
 119 T  14 SI    4.209610000000E-01  1.682740000000E-01  3.612410000000E-01
 120 T  14 SI    2.575500000000E-02  3.193050000000E-01  4.315850000000E-01
 121 T  14 SI    3.103210000000E-01  2.410600000000E-02  4.292210000000E-01
 122 T  14 SI    1.437090000000E-01  1.477180000000E-01  4.658010000000E-01
 123 T  14 SI    4.023020000000E-01  3.948110000000E-01  4.612510000000E-01
 124 T  14 SI    1.708060000000E-01 -7.535400000000E-02  3.570360000000E-01
 125 T  14 SI    4.166930000000E-01 -3.231350000000E-01  3.547120000000E-01
 126 T  14 SI    4.639900000000E-02 -2.012810000000E-01  4.241670000000E-01
 127 T  14 SI    2.874730000000E-01 -4.399870000000E-01  4.208600000000E-01
 128 T  14 SI    1.931370000000E-01 -2.949430000000E-01  4.916020000000E-01
 129 T  14 SI    3.345480000000E-01 -1.247300000000E-01 -4.766000000000E-01
 130 T  14 SI   -3.379710000000E-01  4.343580000000E-01  3.503130000000E-01
 131 T  14 SI   -7.504700000000E-02  1.815270000000E-01  3.577150000000E-01
 132 T  14 SI   -4.326240000000E-01  2.901840000000E-01  4.182250000000E-01
 133 T  14 SI   -1.997580000000E-01  5.560200000000E-02  4.202970000000E-01
 134 T  14 SI   -3.035820000000E-01  1.844470000000E-01  4.904720000000E-01
 135 T  14 SI   -1.861570000000E-01  3.710260000000E-01  4.810600000000E-01
 136 T  14 SI   -3.361690000000E-01 -6.484400000000E-02  3.597920000000E-01
 137 T  14 SI   -7.142700000000E-02 -3.276960000000E-01  3.551720000000E-01
 138 T  14 SI   -4.495360000000E-01 -2.101880000000E-01  4.227100000000E-01
 139 T  14 SI   -2.065470000000E-01 -4.493330000000E-01  4.161290000000E-01
 140 T  14 SI   -2.537290000000E-01 -2.547080000000E-01  4.659290000000E-01
 141 T  14 SI   -6.359500000000E-02 -5.719200000000E-02  4.868000000000E-01
 142 T  14 SI    3.740590000000E-01  2.731650000000E-01 -4.117170000000E-01
 143 T  14 SI    2.278700000000E-02 -6.955000000000E-03 -3.613560000000E-01
 144 T  14 SI    1.542480000000E-01 -3.227470000000E-01 -3.714770000000E-01
 145 T  14 SI   -3.821180000000E-01  4.432130000000E-01 -4.101930000000E-01
 146 T  14 SI    3.009970000000E-01 -5.021000000000E-03 -3.802420000000E-01
 147 T  14 SI   -4.439910000000E-01 -2.770980000000E-01 -4.362680000000E-01
 148 T  14 SI   -2.127350000000E-01 -7.605500000000E-02 -4.352910000000E-01
 149 T  14 SI    3.104020000000E-01  1.750130000000E-01 -1.262620000000E-01
 150 T  14 SI   -2.049140000000E-01 -4.966120000000E-01 -4.642100000000E-02
 151 T  14 SI    3.770140000000E-01 -3.443100000000E-02 -2.318010000000E-01
 152 T  14 SI   -2.145120000000E-01  9.337700000000E-02 -2.994400000000E-01
 153 T  14 SI    6.788500000000E-02 -3.731250000000E-01 -1.625590000000E-01
 154 T  14 SI   -7.417600000000E-02 -2.544130000000E-01 -2.776840000000E-01
 155 T  14 SI   -4.352410000000E-01 -2.423850000000E-01 -1.853670000000E-01
 156 T  14 SI    2.954480000000E-01 -3.264060000000E-01 -1.012430000000E-01
 157 T  14 SI   -1.632150000000E-01  2.327980000000E-01 -1.742440000000E-01
 158 T  14 SI   -1.721470000000E-01  1.636050000000E-01 -2.825700000000E-02
 159 T  14 SI    4.205980000000E-01  4.321380000000E-01 -7.717200000000E-02
 160 T  14 SI    1.093940000000E-01  3.490040000000E-01 -1.865250000000E-01
 161 T  14 SI    1.167300000000E-01 -1.004220000000E-01 -2.258720000000E-01
 162 T  14 SI   -3.688390000000E-01  1.180000000000E-01 -1.075340000000E-01
 163 T  14 SI   -3.279210000000E-01  3.603410000000E-01 -2.758760000000E-01
 164 T  14 SI   -7.404400000000E-02 -4.657640000000E-01 -3.390780000000E-01
 165 T  14 SI   -1.520800000000E-02  8.503000000000E-03 -1.072640000000E-01
 166 T  14 SI    1.704140000000E-01  4.105100000000E-01 -3.250890000000E-01
 167 T  14 SI    4.354930000000E-01 -1.246510000000E-01 -7.576500000000E-02
 168 T  14 SI    4.589810000000E-01  4.975650000000E-01 -2.114320000000E-01
 169 T  14 SI   -1.962430000000E-01 -4.547980000000E-01 -1.884410000000E-01

 T = ATOM BELONGING TO THE ASYMMETRIC UNIT

 ****   1 SYMMOPS - TRANSLATORS IN FRACTIONAL UNITS
  V INV                   ROTATION MATRICES                       TRANSLATOR
  1  1  1.00  0.00  0.00  0.00  1.00  0.00  0.00  0.00  1.00    0.00  0.00  0.00

 DIRECT LATTICE VECTORS CARTESIAN COMPONENTS (ANGSTROM)
          X                    Y                    Z
   0.108530000000E+02   0.664554585557E-15   0.000000000000E+00
   0.000000000000E+00   0.106395000000E+02   0.000000000000E+00
   0.129715201289E-14   0.129715201289E-14   0.211841000000E+02


 CARTESIAN COORDINATES - PRIMITIVE CELL
 *******************************************************************************
 *      ATOM          X(ANGSTROM)         Y(ANGSTROM)         Z(ANGSTROM)
 *******************************************************************************
   1     1 H     2.162633898000E+00  1.935484642500E+00  3.552361729000E-01
   2     1 H    -2.675199382000E+00 -1.102975686000E+00 -1.395968637700E+00
   3     1 H    -3.042768786000E+00 -1.853826480000E+00  7.425662573000E-01
   4     1 H    -1.894922947000E+00 -2.963058192000E+00  1.160104868300E+00
   5     1 H     2.028436553000E+00  2.123984664000E+00 -1.002804452160E+01
   6     1 H    -3.806776574000E+00  1.723024467000E+00 -9.420971767900E+00
   7     1 H    -3.233293201000E+00 -1.229500620000E-01 -6.580671192200E+00
   8     1 H    -3.408406356000E+00  3.897248850000E-02 -2.965392686200E+00
   9     1 H     5.369586868000E+00  1.142916369000E+00 -2.425537081800E+00
  10     1 H    -1.752748647000E+00 -4.818097575000E+00 -8.287622417900E+00
  11     1 H     5.363161892000E+00 -2.503059409500E+00 -7.101122161000E+00
  12     1 H     1.732214771000E+00 -3.637027959000E+00  4.653087565000E-01
  13     1 H    -9.321207580000E-01  3.735805077000E+00 -9.934622640600E+00
  14     1 H     3.148552977000E+00  9.314350275000E-01 -1.549172048900E+00
  15     1 H     3.609783771000E+00 -3.699215836500E+00 -3.564881532100E+00
  16     1 H    -1.908467491000E+00  2.267064660000E-01 -4.186190001000E-01
  17     1 H     4.525180056000E+00 -1.930218090000E-01 -2.559717171200E+00
  18     1 H     3.620061562000E+00 -2.057987845500E+00 -2.643627391300E+00
  19     1 H     3.612724934000E+00  5.208705538500E+00 -4.854993222100E+00
  20     1 H    -2.207847496000E+00  6.509884470000E-01 -8.959158387900E+00
  21     1 H    -3.749212262000E+00 -9.566932005000E-01 -8.956870505100E+00
  22     8 O    -5.283066752000E+00  3.535005793500E+00 -8.587674010300E+00
  23     8 O    -2.820043520000E+00  4.597902483000E+00 -9.629592784700E+00
  24     8 O     1.705874540000E+00  5.333368560000E-01 -8.049894447700E+00
  25     8 O    -5.002788027000E+00 -4.588869547500E+00 -9.181676174300E+00
  26     8 O     4.781831800000E-02 -3.402831285000E+00 -7.271887191100E+00
  27     8 O     3.564277142000E+00  3.342047821500E+00 -1.025232058830E+01
  28     8 O    -9.474669000000E-01  1.012497378000E+00 -7.304531889200E+00
  29     8 O     4.815150510000E-01  6.323374035000E-01 -1.052576495110E+01
  30     8 O     5.392215373000E+00 -2.100758635500E+00 -7.982084143600E+00
  31     8 O     2.215531420000E-01  4.394347569000E+00 -7.437695141800E+00
  32     8 O     2.437648918000E+00 -2.041390225500E+00 -7.828965468800E+00
  33     8 O    -3.511379620000E+00  4.771219938000E+00 -7.182998707500E+00
  34     8 O     1.453314377000E+00 -3.938413075500E+00 -9.432538286500E+00
  35     8 O    -4.884067060000E-01 -1.057034325000E+00 -8.839828352600E+00
  36     8 O    -3.199963638000E+00 -2.739405262500E+00 -9.534370255200E+00
  37     8 O     5.209440000000E+00 -2.150870680500E+00 -1.056177792110E+01
  38     8 O     4.117508817000E+00  1.308381873000E+00 -8.542107011200E+00
  39     8 O     2.803112840000E+00 -1.405190683500E+00 -4.578244139700E+00
  40     8 O     2.921909778000E+00  3.590501425500E+00 -7.793757494600E+00
  41     8 O     1.974334348000E+00  2.692431870000E+00 -3.002697886300E+00
  42     8 O     2.244498077000E+00 -4.690434214500E+00 -6.943576009300E+00
  43     8 O    -1.851803978000E+00  3.475265001000E+00 -5.521847506000E-01
  44     8 O     3.840366609000E+00  1.003336768500E+00 -4.029258188200E+00
  45     8 O    -3.463387654000E+00  2.180629362000E+00 -6.471001106500E+00
  46     8 O     1.504106417000E+00 -3.207521983500E+00 -2.280002314800E+00
  47     8 O    -1.747083381000E+00  1.321106715000E+00 -4.835186088600E+00
  48     8 O     5.317959147000E+00  5.312866243500E+00 -2.898874612200E+00
  49     8 O     1.546802119000E+00  5.309450964000E+00 -3.873322028100E+00
  50     8 O     6.209652480000E-01 -8.796844995000E-01 -6.257804324100E+00
  51     8 O    -7.619457180000E-01 -1.251524385000E+00  1.244565875000E-01
  52     8 O    -1.488673451000E+00 -4.333383234000E+00 -5.586374274600E+00
  53     8 O     5.396111600000E+00 -3.727719057000E+00 -4.872809050200E+00
  54     8 O    -1.864914402000E+00 -1.625247462000E+00 -6.098838837700E+00
  55     8 O     5.348738255000E+00 -4.480612635000E-01 -4.067559041000E-01
  56     8 O    -5.074569769000E+00 -3.899653377000E+00  7.470784706000E-01
  57     8 O    -5.300040844000E+00 -1.145480488500E+00 -4.614172373300E+00
  58     8 O    -4.892195957000E+00 -2.202706324500E+00 -2.334339531300E+00
  59     8 O    -1.231316262000E+00  1.495647712500E+00 -2.354951660600E+00
  60     8 O    -5.186887466000E+00  4.375409259000E+00 -4.851370741000E-01
  61     8 O    -3.287645025000E+00  2.567800767000E+00 -2.959058640300E+00
  62     8 O     6.642687180000E-01 -4.629246450000E-02 -3.743230470000E+00
  63     8 O     7.648543220000E-01  6.725440740000E-01 -1.040414703300E+00
  64     8 O     3.484898300000E+00 -4.833737640000E+00 -1.219102586800E+00
  65     8 O    -7.943093640000E-01 -4.148106981000E+00 -3.224791990700E+00
  66     8 O    -3.642809450000E+00  1.533194508000E+00 -6.092970842000E-01
  67     8 O     1.768995588000E+00  3.564860230500E+00 -5.489139255600E+00
  68     8 O    -4.185785040000E-01  3.516110041500E+00 -3.665463638900E+00
  69     8 O     3.943535227000E+00 -1.651250400000E-02 -6.459392219700E+00
  70     8 O    -5.005143128000E+00  4.212901536000E+00 -5.206734018500E+00
  71     8 O    -2.451703553000E+00  4.356939087000E+00 -4.675712183800E+00
  72     8 O    -3.132642479000E+00 -3.097584030000E+00 -3.993266402300E+00
  73     8 O    -2.801083329000E+00 -5.149826545500E+00 -2.462418599900E+00
  74     8 O     5.067699820000E-01 -2.677047153000E+00 -4.696112472100E+00
  75     8 O    -6.549785500000E-01 -4.715405121000E+00 -7.112561575000E-01
  76     8 O     3.799244592000E+00 -2.636148915000E+00 -7.306819772000E-01
  77     8 O     4.570382801000E+00  2.943524070000E+00 -2.521501054800E+00
  78    14 SI    1.956036190000E-01  1.362919950000E-01  4.435315017000E-01
  79    14 SI    3.196317030000E+00  3.060484093500E+00  4.509247526000E-01
  80    14 SI    1.843664228000E+00  4.425659617500E+00  1.878436515200E+00
  81    14 SI    4.670566844000E+00  1.853549853000E+00  1.899684167500E+00
  82    14 SI    5.494222720000E-01  3.191967034500E+00  3.462244567600E+00
  83    14 SI    3.202427269000E+00  5.679790680000E-01  3.255424199300E+00
  84    14 SI    1.924790403000E+00  1.863636099000E+00  4.798516411500E+00
  85    14 SI    4.461212474000E+00  4.454258593500E+00  4.778158491400E+00
  86    14 SI    4.292361500000E-02 -4.964869477500E+00  8.126432601000E-01
  87    14 SI    2.805066380000E+00 -2.655055306500E+00  8.356703768000E-01
  88    14 SI    1.848276753000E+00 -7.881741600000E-01  1.861912917200E+00
  89    14 SI    4.702583194000E+00 -3.391415101500E+00  1.953279940500E+00
  90    14 SI    5.236789560000E-01 -2.022313602000E+00  3.402505405600E+00
  91    14 SI    3.286972139000E+00 -4.863177136500E+00  3.214030467900E+00
  92    14 SI    1.920416644000E+00 -3.485489560500E+00  4.625611787300E+00
  93    14 SI    4.497960732000E+00 -7.593304755000E-01  4.721152078300E+00
  94    14 SI   -4.598448659000E+00  4.155150330000E-01  6.477674098000E-01
  95    14 SI   -1.402869633000E+00  3.748795906500E+00  1.272380598300E+00
  96    14 SI   -3.416350752000E+00  4.373313277500E+00  2.288475954800E+00
  97    14 SI   -6.584515100000E-01  1.701330526500E+00  2.061700164300E+00
  98    14 SI   -4.951171159000E+00  3.093562299000E+00  3.476162521300E+00
  99    14 SI   -2.211939077000E+00  4.816288860000E-01  3.378037770100E+00
 100    14 SI   -3.538229942000E+00  1.824238030500E+00  4.811968315000E+00
 101    14 SI   -8.767813110000E-01  4.521542791500E+00  4.810125298300E+00
 102    14 SI   -4.194695353000E+00 -5.251433770500E+00  3.875631095000E-01
 103    14 SI   -1.343623106000E+00 -1.857603502500E+00 -1.337860651400E+00
 104    14 SI   -3.260208641000E+00 -1.080345469500E+00  1.982556366700E+00
 105    14 SI   -9.568547450000E-01 -3.357900676500E+00  2.223864449800E+00
 106    14 SI   -4.896211567000E+00 -2.028112129500E+00  3.380939991800E+00
 107    14 SI   -2.273182556000E+00 -4.702095106500E+00  3.567550728700E+00
 108    14 SI   -3.638652751000E+00 -3.346718562000E+00  4.855099142600E+00
 109    14 SI   -8.665903440000E-01 -7.674271350000E-01  4.854145858100E+00
 110    14 SI    5.240588110000E-01  5.835765750000E-01  6.183935367400E+00
 111    14 SI    3.167426344000E+00  3.159463362000E+00  6.309938394200E+00
 112    14 SI    5.461121070000E-01 -4.756228882500E+00  6.065304407400E+00
 113    14 SI    3.168511644000E+00 -2.126165761500E+00  6.104939858500E+00
 114    14 SI   -4.967092510000E+00  5.299215765000E-01  6.129047364300E+00
 115    14 SI   -2.226471244000E+00  3.213820567500E+00  6.199018446600E+00
 116    14 SI   -5.045527141000E+00 -4.754867026500E+00  6.057932340600E+00
 117    14 SI   -2.253267301000E+00 -2.102088573000E+00  6.281699988900E+00
 118    14 SI    1.721893568000E+00  4.553088909000E+00  7.615895791000E+00
 119    14 SI    4.568689733000E+00  1.790351223000E+00  7.652565468100E+00
 120    14 SI    2.795190150000E-01  3.397245547500E+00  9.142739798500E+00
 121    14 SI    3.367913813000E+00  2.564757870000E-01  9.092660586100E+00
 122    14 SI    1.559673777000E+00  1.571645661000E+00  9.867574964100E+00
 123    14 SI    4.366183606000E+00  4.200591634500E+00  9.771187309100E+00
 124    14 SI    1.853757518000E+00 -8.017288830000E-01  7.563486327600E+00
 125    14 SI    4.522369129000E+00 -3.437994832500E+00  7.514254479200E+00
 126    14 SI    5.035683470000E-01 -2.141529199500E+00  8.985596144700E+00
 127    14 SI    3.119944469000E+00 -4.681241686500E+00  8.915540326000E+00
 128    14 SI    2.096115861000E+00 -3.138046048500E+00  1.041414592820E+01
 129    14 SI    3.630849444000E+00 -1.327064835000E+00 -1.009634206000E+01
 130    14 SI   -3.667999263000E+00  4.621351941000E+00  7.421065623300E+00
 131    14 SI   -8.144850910000E-01  1.931356516500E+00  7.577870331500E+00
 132    14 SI   -4.695268272000E+00  3.087412668000E+00  8.859720222500E+00
 133    14 SI   -2.167973574000E+00  5.915774790000E-01  8.903613677700E+00
 134    14 SI   -3.294775446000E+00  1.962423856500E+00  1.039020789520E+01
 135    14 SI   -2.020361921000E+00  3.947531127000E+00  1.019082314600E+01
 136    14 SI   -3.648442157000E+00 -6.899077380000E-01  7.621869707200E+00
 137    14 SI   -7.751972310000E-01 -3.486521592000E+00  7.523999165200E+00
 138    14 SI   -4.878814208000E+00 -2.236295226000E+00  8.954730911000E+00
 139    14 SI   -2.241654591000E+00 -4.780678453500E+00  8.815318348900E+00
 140    14 SI   -2.753720837000E+00 -2.709965766000E+00  9.870286528900E+00
 141    14 SI   -6.901965350000E-01 -6.084942840000E-01  1.031241988000E+01
 142    14 SI    4.059662327000E+00  2.906339017500E+00 -8.721854099700E+00
 143    14 SI    2.473073110000E-01 -7.399772250000E-02 -7.655001639600E+00
 144    14 SI    1.674053544000E+00 -3.433866706500E+00 -7.869405915700E+00
 145    14 SI   -4.147126654000E+00  4.715564713500E+00 -8.689569531300E+00
 146    14 SI    3.266720441000E+00 -5.342092950000E-02 -8.055084552200E+00
 147    14 SI   -4.818634323000E+00 -2.948184171000E+00 -9.241944938800E+00
 148    14 SI   -2.308812955000E+00 -8.091871725000E-01 -9.221248073100E+00
 149    14 SI    3.368792906000E+00  1.862050813500E+00 -2.674746834200E+00
 150    14 SI   -2.223931642000E+00 -5.283703374000E+00 -9.833871061000E-01
 151    14 SI    4.091732942000E+00 -3.663286245000E-01 -4.910495564100E+00
 152    14 SI   -2.328098736000E+00  9.934845915000E-01 -6.343366904000E+00
 153    14 SI    7.367559050000E-01 -3.969863437500E+00 -3.443666111900E+00
 154    14 SI   -8.050321280000E-01 -2.706827113500E+00 -5.882485624400E+00
 155    14 SI   -4.723670573000E+00 -2.578855207500E+00 -3.926833064700E+00
 156    14 SI    3.206497144000E+00 -3.472796637000E+00 -2.144741836300E+00
 157    14 SI   -1.771372395000E+00  2.476854321000E+00 -3.691202320400E+00
 158    14 SI   -1.868311391000E+00  1.740675397500E+00 -5.985991137000E-01
 159    14 SI    4.564750094000E+00  4.597732251000E+00 -1.634819365200E+00
 160    14 SI    1.187253082000E+00  3.713228058000E+00 -3.951364252500E+00
 161    14 SI    1.266870690000E+00 -1.068439869000E+00 -4.784895035200E+00
 162    14 SI   -4.003009667000E+00  1.255461000000E+00 -2.278011009400E+00
 163    14 SI   -3.558926613000E+00  3.833848069500E+00 -5.844184771600E+00
 164    14 SI   -8.035995320000E-01 -4.955496078000E+00 -7.183062259800E+00
 165    14 SI   -1.650524240000E-01  9.046766850000E-02 -2.272291302400E+00
 166    14 SI    1.849503142000E+00  4.367621145000E+00 -6.886717884900E+00
 167    14 SI    4.726405529000E+00 -1.326224314500E+00 -1.605013336500E+00
 168    14 SI    4.981320793000E+00  5.293842817500E+00 -4.478996631200E+00
 169    14 SI   -2.129825279000E+00 -4.838823321000E+00 -3.991952988100E+00

 *******************************************************************************
 LOCAL ATOMIC FUNCTIONS BASIS SET
 *******************************************************************************
   ATOM  X(AU)  Y(AU)  Z(AU)    NO. TYPE  EXPONENT  S COEF   P COEF   D/F/G COEF
 *******************************************************************************
   1 H   4.087  3.658  0.671
                                  1 S  
                                         1.873E+01 3.349E-02 0.000E+00 0.000E+00
                                         2.825E+00 2.347E-01 0.000E+00 0.000E+00
                                         6.401E-01 8.138E-01 0.000E+00 0.000E+00
                                  2 S  
                                         1.613E-01 1.000E+00 0.000E+00 0.000E+00
                             3-   5 P  
                                         1.100E+00 0.000E+00 1.000E+00 0.000E+00
   2 H  -5.055 -2.084 -2.638
   3 H  -5.750 -3.503  1.403
   4 H  -3.581 -5.599  2.192
   5 H   3.833  4.014-18.950
   6 H  -7.194  3.256-17.803
   7 H  -6.110 -0.232-12.436
   8 H  -6.441  0.074 -5.604
   9 H  10.147  2.160 -4.584
  10 H  -3.312 -9.105-15.661
  11 H  10.135 -4.730-13.419
  12 H   3.273 -6.873  0.879
  13 H  -1.761  7.060-18.774
  14 H   5.950  1.760 -2.928
  15 H   6.822 -6.991 -6.737
  16 H  -3.606  0.428 -0.791
  17 H   8.551 -0.365 -4.837
  18 H   6.841 -3.889 -4.996
  19 H   6.827  9.843 -9.175
  20 H  -4.172  1.230-16.930
  21 H  -7.085 -1.808-16.926
  22 O  -9.984  6.680-16.228
                                106 S  
                                         8.020E+03 1.080E-03 0.000E+00 0.000E+00
                                         1.338E+03 8.040E-03 0.000E+00 0.000E+00
                                         2.554E+02 5.324E-02 0.000E+00 0.000E+00
                                         6.922E+01 1.681E-01 0.000E+00 0.000E+00
                                         2.390E+01 3.581E-01 0.000E+00 0.000E+00
                                         9.264E+00 3.855E-01 0.000E+00 0.000E+00
                                         3.851E+00 1.468E-01 0.000E+00 0.000E+00
                                         1.212E+00 7.280E-02 0.000E+00 0.000E+00
                           107- 110 SP 
                                         4.943E+01-8.830E-03 9.580E-03 0.000E+00
                                         1.047E+01-9.150E-02 6.960E-02 0.000E+00
                                         3.235E+00-4.020E-02 2.065E-01 0.000E+00
                                         1.217E+00 3.790E-01 3.470E-01 0.000E+00
                           111- 114 SP 
                                         4.763E-01 1.000E+00 1.000E+00 0.000E+00
                           115- 118 SP 
                                         1.900E-01 1.000E+00 1.000E+00 0.000E+00
  23 O  -5.329  8.689-18.197
  24 O   3.224  1.008-15.212
  25 O  -9.454 -8.672-17.351
  26 O   0.090 -6.430-13.742
  27 O   6.736  6.316-19.374
  28 O  -1.790  1.913-13.804
  29 O   0.910  1.195-19.891
  30 O  10.190 -3.970-15.084
  31 O   0.419  8.304-14.055
  32 O   4.606 -3.858-14.795
  33 O  -6.636  9.016-13.574
  34 O   2.746 -7.443-17.825
  35 O  -0.923 -1.998-16.705
  36 O  -6.047 -5.177-18.017
  37 O   9.844 -4.065-19.959
  38 O   7.781  2.472-16.142
  39 O   5.297 -2.655 -8.652
  40 O   5.522  6.785-14.728
  41 O   3.731  5.088 -5.674
  42 O   4.241 -8.864-13.121
  43 O  -3.499  6.567 -1.043
  44 O   7.257  1.896 -7.614
  45 O  -6.545  4.121-12.228
  46 O   2.842 -6.061 -4.309
  47 O  -3.302  2.497 -9.137
  48 O  10.049 10.040 -5.478
  49 O   2.923 10.033 -7.320
  50 O   1.173 -1.662-11.826
  51 O  -1.440 -2.365  0.235
  52 O  -2.813 -8.189-10.557
  53 O  10.197 -7.044 -9.208
  54 O  -3.524 -3.071-11.525
  55 O  10.108 -0.847 -0.769
  56 O  -9.590 -7.369  1.412
  57 O -10.016 -2.165 -8.720
  58 O  -9.245 -4.163 -4.411
  59 O  -2.327  2.826 -4.450
  60 O  -9.802  8.268 -0.917
  61 O  -6.213  4.852 -5.592
  62 O   1.255 -0.087 -7.074
  63 O   1.445  1.271 -1.966
  64 O   6.586 -9.134 -2.304
  65 O  -1.501 -7.839 -6.094
  66 O  -6.884  2.897 -1.151
  67 O   3.343  6.737-10.373
  68 O  -0.791  6.644 -6.927
  69 O   7.452 -0.031-12.206
  70 O  -9.458  7.961 -9.839
  71 O  -4.633  8.233 -8.836
  72 O  -5.920 -5.854 -7.546
  73 O  -5.293 -9.732 -4.653
  74 O   0.958 -5.059 -8.874
  75 O  -1.238 -8.911 -1.344
  76 O   7.180 -4.982 -1.381
  77 O   8.637  5.562 -4.765
  78 SI  0.370  0.258  0.838
                                834 S  
                                         8.765E+04 2.370E-04 0.000E+00 0.000E+00
                                         1.285E+04 1.920E-03 0.000E+00 0.000E+00
                                         2.786E+03 1.090E-02 0.000E+00 0.000E+00
                                         7.280E+02 4.960E-02 0.000E+00 0.000E+00
                                         2.195E+02 1.668E-01 0.000E+00 0.000E+00
                                         7.590E+01 3.630E-01 0.000E+00 0.000E+00
                                         2.946E+01 4.051E-01 0.000E+00 0.000E+00
                                         1.199E+01 1.504E-01 0.000E+00 0.000E+00
                           835- 838 SP 
                                         1.660E+02-8.840E-03 9.090E-03 0.000E+00
                                         3.937E+01-8.590E-02 6.010E-02 0.000E+00
                                         1.271E+01-7.120E-02 1.952E-01 0.000E+00
                                         4.718E+00 4.147E-01 3.384E-01 0.000E+00
                                         1.848E+00 6.168E-01 3.006E-01 0.000E+00
                                         7.365E-01 1.154E-01 6.480E-02 0.000E+00
                           839- 842 SP 
                                         4.175E+00-1.990E-02-8.700E-03 0.000E+00
                                         1.447E+00-1.864E-01-4.380E-03 0.000E+00
                                         5.023E-01 9.670E-02 2.207E-01 0.000E+00
                           843- 846 SP 
                                         3.220E-01 1.000E+00 1.000E+00 0.000E+00
                           847- 850 SP 
                                         1.300E-01 1.000E+00 1.000E+00 0.000E+00
                           851- 855 D  
                                         6.000E-01 0.000E+00 0.000E+00 1.000E+00
  79 SI  6.040  5.783  0.852
  80 SI  3.484  8.363  3.550
  81 SI  8.826  3.503  3.590
  82 SI  1.038  6.032  6.543
  83 SI  6.052  1.073  6.152
  84 SI  3.637  3.522  9.068
  85 SI  8.430  8.417  9.029
  86 SI  0.081 -9.382  1.536
  87 SI  5.301 -5.017  1.579
  88 SI  3.493 -1.489  3.519
  89 SI  8.887 -6.409  3.691
  90 SI  0.990 -3.822  6.430
  91 SI  6.211 -9.190  6.074
  92 SI  3.629 -6.587  8.741
  93 SI  8.500 -1.435  8.922
  94 SI -8.690  0.785  1.224
  95 SI -2.651  7.084  2.404
  96 SI -6.456  8.264  4.325
  97 SI -1.244  3.215  3.896
  98 SI -9.356  5.846  6.569
  99 SI -4.180  0.910  6.384
 100 SI -6.686  3.447  9.093
 101 SI -1.657  8.544  9.090
 102 SI -7.927 -9.924  0.732
 103 SI -2.539 -3.510 -2.528
 104 SI -6.161 -2.042  3.746
 105 SI -1.808 -6.346  4.202
 106 SI -9.252 -3.833  6.389
 107 SI -4.296 -8.886  6.742
 108 SI -6.876 -6.324  9.175
 109 SI -1.638 -1.450  9.173
 110 SI  0.990  1.103 11.686
 111 SI  5.986  5.971 11.924
 112 SI  1.032 -8.988 11.462
 113 SI  5.988 -4.018 11.537
 114 SI -9.386  1.001 11.582
 115 SI -4.207  6.073 11.714
 116 SI -9.535 -8.985 11.448
 117 SI -4.258 -3.972 11.871
 118 SI  3.254  8.604 14.392
 119 SI  8.634  3.383 14.461
 120 SI  0.528  6.420 17.277
 121 SI  6.364  0.485 17.183
 122 SI  2.947  2.970 18.647
 123 SI  8.251  7.938 18.465
 124 SI  3.503 -1.515 14.293
 125 SI  8.546 -6.497 14.200
 126 SI  0.952 -4.047 16.980
 127 SI  5.896 -8.846 16.848
 128 SI  3.961 -5.930 19.680
 129 SI  6.861 -2.508-19.079
 130 SI -6.932  8.733 14.024
 131 SI -1.539  3.650 14.320
 132 SI -8.873  5.834 16.742
 133 SI -4.097  1.118 16.825
 134 SI -6.226  3.708 19.635
 135 SI -3.818  7.460 19.258
 136 SI -6.895 -1.304 14.403
 137 SI -1.465 -6.589 14.218
 138 SI -9.220 -4.226 16.922
 139 SI -4.236 -9.034 16.659
 140 SI -5.204 -5.121 18.652
 141 SI -1.304 -1.150 19.488
 142 SI  7.672  5.492-16.482
 143 SI  0.467 -0.140-14.466
 144 SI  3.164 -6.489-14.871
 145 SI -7.837  8.911-16.421
 146 SI  6.173 -0.101-15.222
 147 SI -9.106 -5.571-17.465
 148 SI -4.363 -1.529-17.426
 149 SI  6.366  3.519 -5.055
 150 SI -4.203 -9.985 -1.858
 151 SI  7.732 -0.692 -9.279
 152 SI -4.399  1.877-11.987
 153 SI  1.392 -7.502 -6.508
 154 SI -1.521 -5.115-11.116
 155 SI -8.926 -4.873 -7.421
 156 SI  6.059 -6.563 -4.053
 157 SI -3.347  4.681 -6.975
 158 SI -3.531  3.289 -1.131
 159 SI  8.626  8.688 -3.089
 160 SI  2.244  7.017 -7.467
 161 SI  2.394 -2.019 -9.042
 162 SI -7.565  2.372 -4.305
 163 SI -6.725  7.245-11.044
 164 SI -1.519 -9.365-13.574
 165 SI -0.312  0.171 -4.294
 166 SI  3.495  8.254-13.014
 167 SI  8.932 -2.506 -3.033
 168 SI  9.413 10.004 -8.464
 169 SI -4.025 -9.144 -7.544
 INFORMATION **** TOLINTEG **** COULOMB AND EXCHANGE SERIES TOLERANCES MODIFIED
 INFORMATION **** READM2 **** FULL DIRECT SCF (MONO AND BIEL INT) SELECTED
 INFORMATION **** SMEAR **** FERMI SMEARING ACTIVE
 FERMI SMEARING - TEMPERATURE SMEARING OF FERMI SURFACE  0.1000E-12
 INFORMATION **** MAXCYCLE **** MAX NUMBER OF SCF CYCLES SET TO         150

 MODIFIED BROYDEN MIXING OF THE FOCK MATRIX
 WO PARAMETER(D.D. Johnson, PRB38, 12807,(1988)             1.0000E-04
 % OF FOCK/KS MATRICES MIXING WHEN BROYDEN METHOD IS ON             90
 NUMBER OF SCF ITERATIONS AFTER WHICH BROYDEN METHOD IS ACTIVE      80
 INFORMATION **** TOLDEE **** SCF TOL ON TOTAL ENERGY SET TO           7
 *******************************************************************************
 N. OF ATOMS PER CELL      169  COULOMB OVERLAP TOL         (T1) 10** -8
 NUMBER OF SHELLS          839  COULOMB PENETRATION TOL     (T2) 10** -8
 NUMBER OF AO             2857  EXCHANGE OVERLAP TOL        (T3) 10** -8
 N. OF ELECTRONS PER CELL 1757  EXCHANGE PSEUDO OVP (F(G))  (T4) 10** -8
 CORE ELECTRONS PER CELL  1032  EXCHANGE PSEUDO OVP (P(G))  (T5) 10**-16
 N. OF SYMMETRY OPERATORS    1  POLE ORDER IN MONO ZONE                4
 *******************************************************************************
 TYPE OF CALCULATION :  UNRESTRICTED OPEN SHELL
 KOHN-SHAM HAMILTONIAN

 (EXCHANGE)[CORRELATION] FUNCTIONAL:(BECKE)[LEE-YANG-PARR]

 NON-LOCAL WEIGHTING FACTOR (EXCHANGE) =           0.9000
 NON-LOCAL WEIGHTING FACTOR [CORRELATION] =        0.8100

 HYBRID EXCHANGE - PERCENTAGE OF FOCK EXCHANGE     5.0000

 SPIN POLARIZED DFT SELECTED

 CAPPA:IS1  2;IS2  2;IS3  2; K PTS MONK NET    8; SYMMOPS: K SPACE  2;G SPACE  1

 *******************************************************************************
 MAX NUMBER OF SCF CYCLES     150  CONVERGENCE ON DELTAP        10**-17
 WEIGHT OF F(I) IN F(I+1)      92% CONVERGENCE ON ENERGY        10**- 7
 SHRINK. FACT.(MONKH.)    2  2  2  NUMBER OF K POINTS IN THE IBZ      8
 SHRINKING FACTOR(GILAT NET)    2  NUMBER OF K POINTS(GILAT NET)      8
 *******************************************************************************
 *** K POINTS COORDINATES (OBLIQUE COORDINATES IN UNITS OF IS =  2)
   1-R(  0  0  0)   2-R(  1  0  0)   3-R(  0  1  0)   4-R(  1  1  0)
   5-R(  0  0  1)   6-R(  1  0  1)   7-R(  0  1  1)   8-R(  1  1  1)

 DIRECT LATTICE VECTORS COMPON. (A.U.)     RECIP. LATTICE VECTORS COMPON. (A.U.) 
        X            Y            Z              X            Y            Z
   20.5091977    0.0000000    0.0000000      0.3063594    0.0000000    0.0000000
    0.0000000   20.1057412    0.0000000      0.0000000    0.3125070    0.0000000
    0.0000000    0.0000000   40.0321474      0.0000000    0.0000000    0.1569535

 DISK SPACE FOR EIGENVECTORS (FTN 10)   65299592 REALS

 SYMMETRY ADAPTION OF THE BLOCH FUNCTIONS DISABLED
 TTTTTTTTTTTTTTTTTTTTTTTTTTTTTT gordsh1     TELAPSE        4.19 TCPU        0.74

 DIMENSIONS  P(G)= 6834169 F(G)= 1217322 P(G),F(G) (IRR) 3425698
 MAX G-VECTOR INDEX FOR 1- AND 2-ELECTRON INTEGRALS  43

 TTTTTTTTTTTTTTTTTTTTTTTTTTTTTT INPUT       TELAPSE        4.57 TCPU        1.13

 NEIGHBORS OF THE NON-EQUIVALENT ATOMS

 N = NUMBER OF NEIGHBORS AT DISTANCE R
    ATOM  N     R/ANG      R/AU   NEIGHBORS (ATOM LABELS AND CELL INDICES)
   1 H    1     1.5308     2.8928  79 SI   0 0 0
   1 H    1     2.3445     4.4304  63 O    0 0 0
   1 H    1     2.3679     4.4747  14 H    0 0 0
   1 H    1     2.6672     5.0403  78 SI   0 0 0
   1 H    1     2.9365     5.5491  80 SI   0 0 0
   1 H    1     2.9465     5.5680  81 SI   0 0 0

   2 H    1     1.5316     2.8944 103 SI   0 0 0
   2 H    1     1.8197     3.4386  16 H    0 0 0
   2 H    1     2.0748     3.9208   8 H    0 0 0
   2 H    1     2.2961     4.3391   3 H    0 0 0
   2 H    1     2.4483     4.6267  51 O    0 0 0
   2 H    1     2.6467     5.0015  58 O    0 0 0

   3 H    1     1.4775     2.7921 104 SI   0 0 0
   3 H    1     1.6499     3.1179   4 H    0 0 0
   3 H    1     2.2961     4.3391   2 H    0 0 0
   3 H    1     2.4386     4.6084  51 O    0 0 0
   3 H    1     2.6389     4.9867  16 H    0 0 0
   3 H    1     2.6861     5.0760 103 SI   0 0 0

   4 H    1     1.4722     2.7821 105 SI   0 0 0
   4 H    1     1.6499     3.1179   3 H    0 0 0
   4 H    1     2.2990     4.3445  51 O    0 0 0
   4 H    1     2.4668     4.6616 104 SI   0 0 0
   4 H    1     2.7867     5.2661 103 SI   0 0 0
   4 H    1     2.8077     5.3058  86 SI   0 0 0

   5 H    1     1.4782     2.7933 122 SI   0 0-1
   5 H    1     1.9730     3.7285  27 O    0 0 0
   5 H    1     2.2058     4.1684  29 O    0 0 0
   5 H    1     2.5385     4.7971 142 SI   0 0 0
   5 H    1     2.5588     4.8354  24 O    0 0 0
   5 H    1     2.6902     5.0838  38 O    0 0 0

   6 H    1     1.4847     2.8057 134 SI   0 0-1
   6 H    1     1.9797     3.7410  20 H    0 0 0
   6 H    1     2.4813     4.6891  22 O    0 0 0
   6 H    1     2.7202     5.1405  21 H    0 0 0
   6 H    1     2.9489     5.5726 148 SI   0 0 0
   6 H    1     3.0049     5.6785  45 O    0 0 0

   7 H    1     1.4567     2.7529 152 SI   0 0 0
   7 H    1     2.0884     3.9466  54 O    0 0 0
   7 H    1     2.3176     4.3797  45 O    0 0 0
   7 H    1     2.5705     4.8576  21 H    0 0 0
   7 H    1     2.6530     5.0134  28 O    0 0 0
   7 H    1     2.7033     5.1085  20 H    0 0 0

   8 H    1     1.5185     2.8696 162 SI   0 0 0
   8 H    1     2.0748     3.9208   2 H    0 0 0
   8 H    1     2.4116     4.5573   9 H   -1 0 0
   8 H    1     2.5317     4.7843  61 O    0 0 0
   8 H    1     2.6897     5.0827  59 O    0 0 0
   8 H    1     2.7613     5.2182  58 O    0 0 0

   9 H    1     1.4920     2.8194 162 SI   1 0 0
   9 H    1     1.5861     2.9973  17 H    0 0 0
   9 H    1     1.9723     3.7272  77 O    0 0 0
   9 H    1     2.1407     4.0453 149 SI   0 0 0
   9 H    1     2.2203     4.1958  44 O    0 0 0
   9 H    1     2.3970     4.5297  14 H    0 0 0

  10 H    1     1.4628     2.7643 164 SI   0 0 0
  10 H    1     2.1064     3.9805  23 O    0-1 0
  10 H    1     2.3272     4.3978  33 O    0-1 0
  10 H    1     2.5053     4.7344  26 O    0 0 0
  10 H    1     2.5801     4.8756  31 O    0-1 0
  10 H    1     2.6679     5.0415 145 SI   0-1 0

  11 H    1     0.9689     1.8310  30 O    0 0 0
  11 H    1     2.2873     4.3224 147 SI   1 0 0
  11 H    1     2.5429     4.8054  53 O    0 0 0
  11 H    1     2.8397     5.3663  57 O    1 0 0
  11 H    1     2.9343     5.5450  69 O    0 0 0
  11 H    1     2.9774     5.6264  21 H    1 0 0

  12 H    1     1.5008     2.8361  87 SI   0 0 0
  12 H    1     2.1766     4.1131  86 SI   0 0 0
  12 H    1     2.5894     4.8932  76 O    0 0 0
  12 H    1     2.7095     5.1202  64 O    0 0 0
  12 H    1     2.7881     5.2687  46 O    0 0 0
  12 H    1     2.8716     5.4265  75 O    0 0 0

  13 H    1     1.5329     2.8968 135 SI   0 0-1
  13 H    1     2.0977     3.9642  23 O    0 0 0
  13 H    1     2.4538     4.6370 120 SI   0 0-1
  13 H    1     2.7813     5.2559  10 H    0 1 0
  13 H    1     2.8283     5.3447  31 O    0 0 0
  13 H    1     3.0766     5.8139 134 SI   0 0-1

  14 H    1     1.4770     2.7911 149 SI   0 0 0
  14 H    1     2.0447     3.8639  17 H    0 0 0
  14 H    1     2.3679     4.4747   1 H    0 0 0
  14 H    1     2.3970     4.5297   9 H    0 0 0
  14 H    1     2.4511     4.6319  63 O    0 0 0
  14 H    1     2.5676     4.8521  41 O    0 0 0

  15 H    1     1.4936     2.8224 156 SI   0 0 0
  15 H    1     1.8821     3.5567  18 H    0 0 0
  15 H    1     2.1593     4.0806  19 H    0-1 0
  15 H    1     2.2141     4.1841  53 O    0 0 0
  15 H    1     2.3297     4.4025 168 SI   0-1 0
  15 H    1     2.4515     4.6327  48 O    0-1 0

  16 H    1     1.5252     2.8821 158 SI   0 0 0
  16 H    1     1.8197     3.4386   2 H    0 0 0
  16 H    1     1.9480     3.6811  51 O    0 0 0
  16 H    1     2.1797     4.1191  66 O    0 0 0
  16 H    1     2.2757     4.3004  78 SI   0 0 0
  16 H    1     2.3470     4.4352 103 SI   0 0 0

  17 H    1     1.4954     2.8258 167 SI   0 0 0
  17 H    1     1.5861     2.9973   9 H    0 0 0
  17 H    1     2.0149     3.8076  44 O    0 0 0
  17 H    1     2.0447     3.8639  14 H    0 0 0
  17 H    1     2.0747     3.9206  18 H    0 0 0
  17 H    1     2.3192     4.3826  55 O    0 0 0

  18 H    1     1.5562     2.9407 156 SI   0 0 0
  18 H    1     1.6847     3.1836 167 SI   0 0 0
  18 H    1     1.8821     3.5567  15 H    0 0 0
  18 H    1     2.0064     3.7916  76 O    0 0 0
  18 H    1     2.0747     3.9206  17 H    0 0 0
  18 H    1     2.1992     4.1558  39 O    0 0 0

  19 H    1     1.4219     2.6869 168 SI   0 0 0
  19 H    1     2.1593     4.0806  15 H    0 1 0
  19 H    1     2.2895     4.3266  49 O    0 0 0
  19 H    1     2.4660     4.6601  53 O    0 1 0
  19 H    1     2.4721     4.6715  70 O    1 0 0
  19 H    1     2.5502     4.8192  67 O    0 0 0

  20 H    1     1.4869     2.8099 148 SI   0 0 0
  20 H    1     1.9797     3.7410   6 H    0 0 0
  20 H    1     2.1112     3.9895  28 O    0 0 0
  20 H    1     2.2272     4.2088  21 H    0 0 0
  20 H    1     2.4265     4.5855  35 O    0 0 0
  20 H    1     2.5035     4.7309 134 SI   0 0-1

  21 H    1     1.4719     2.7814 148 SI   0 0 0
  21 H    1     1.9528     3.6902  36 O    0 0 0
  21 H    1     2.2272     4.2088  20 H    0 0 0
  21 H    1     2.2778     4.3045  30 O   -1 0 0
  21 H    1     2.2784     4.3055 147 SI   0 0 0
  21 H    1     2.5705     4.8576   7 H    0 0 0

  22 O    1     1.6414     3.1018 142 SI  -1 0 0
  22 O    1     1.6415     3.1020 145 SI   0 0 0
  22 O    1     2.4813     4.6891   6 H    0 0 0
  22 O    1     2.5769     4.8696  33 O    0 0 0
  22 O    1     2.6000     4.9132  25 O    0 1 0
  22 O    1     2.6136     4.9390  27 O   -1 0 0

  23 O    1     1.6305     3.0813 145 SI   0 0 0
  23 O    1     1.7094     3.2303 135 SI   0 0-1
  23 O    1     2.0977     3.9642  13 H    0 0 0
  23 O    1     2.1064     3.9805  10 H    0 1 0
  23 O    1     2.5483     4.8156  33 O    0 0 0
  23 O    1     2.6600     5.0266  25 O    0 1 0

  24 O    1     1.6286     3.0775 143 SI   0 0 0
  24 O    1     1.6675     3.1511 146 SI   0 0 0
  24 O    1     2.5269     4.7752  50 O    0 0 0
  24 O    1     2.5588     4.8354   5 H    0 0 0
  24 O    1     2.5805     4.8764  38 O    0 0 0
  24 O    1     2.6858     5.0754  32 O    0 0 0

  25 O    1     1.6521     3.1220 147 SI   0 0 0
  25 O    1     1.6603     3.1376 145 SI   0-1 0
  25 O    1     2.6000     4.9132  22 O    0-1 0
  25 O    1     2.6067     4.9260  36 O    0 0 0
  25 O    1     2.6600     5.0266  23 O    0-1 0
  25 O    1     2.7999     5.2911  30 O   -1 0 0

  26 O    1     1.7328     3.2745 144 SI   0 0 0
  26 O    1     1.7726     3.3498 154 SI   0 0 0
  26 O    1     1.7730     3.3505 164 SI   0 0 0
  26 O    1     2.4633     4.6549  52 O    0 0 0
  26 O    1     2.5053     4.7344  10 H    0 0 0
  26 O    1     2.5673     4.8515  42 O    0 0 0

  27 O    1     1.6514     3.1207 123 SI   0 0-1
  27 O    1     1.6666     3.1494 142 SI   0 0 0
  27 O    1     1.9730     3.7285   5 H    0 0 0
  27 O    1     2.5532     4.8249  40 O    0 0 0
  27 O    1     2.6136     4.9390  22 O    1 0 0
  27 O    1     2.7142     5.1290  38 O    0 0 0

  28 O    1     1.6525     3.1228 143 SI   0 0 0
  28 O    1     1.6824     3.1792 152 SI   0 0 0
  28 O    1     2.1112     3.9895  20 H    0 0 0
  28 O    1     2.6139     4.9395  47 O    0 0 0
  28 O    1     2.6174     4.9462  35 O    0 0 0
  28 O    1     2.6530     5.0134   7 H    0 0 0

  29 O    1     1.6340     3.0879 122 SI   0 0-1
[...]
  14.1402893  13.5673599  13.5274451  14.0266539  14.0354485  14.0004909
  14.0746434  13.6668366  13.5884996  14.0218983  14.0517612  14.1086792
  14.0035583  13.9079347  13.7625665  14.0202512  14.0054776  13.6981961
  13.9833670  13.8444587  13.5856088  12.6629392  12.6442161  12.9450113
  12.6999750  12.9009467  12.8286445  13.4793897  12.9111017  13.1053936
  12.7787985  12.9778411  12.8239449  12.8840034  12.7713017  13.1946601
  12.7375338  13.2715951  12.9224282  12.7526542  12.6746515  12.9450922
  12.7555459  12.8838255  13.2837794  12.7518338  12.9331649  12.9662981
  12.5858218
 SUMMED SPIN DENSITY           0.00000000
 TOTAL ATOMIC SPINS  :
   0.0000000   0.0000000   0.0000000   0.0000000   0.0000000   0.0000000
   0.0000000   0.0000000   0.0000000   0.0000000   0.0000000   0.0000000
   0.0000000   0.0000000   0.0000000   0.0000000   0.0000000   0.0000000
   0.0000000   0.0000000   0.0000000   0.0000000   0.0000000   0.0000000
   0.0000000   0.0000000   0.0000000   0.0000000   0.0000000   0.0000000
   0.0000000   0.0000000   0.0000000   0.0000000   0.0000000   0.0000000
   0.0000000   0.0000000   0.0000000   0.0000000   0.0000000   0.0000000
   0.0000000   0.0000000   0.0000000   0.0000000   0.0000000   0.0000000
   0.0000000   0.0000000   0.0000000   0.0000000   0.0000000   0.0000000
   0.0000000   0.0000000   0.0000000   0.0000000   0.0000000   0.0000000
   0.0000000   0.0000000   0.0000000   0.0000000   0.0000000   0.0000000
   0.0000000   0.0000000   0.0000000   0.0000000   0.0000000   0.0000000
   0.0000000   0.0000000   0.0000000   0.0000000   0.0000000   0.0000000
   0.0000000   0.0000000   0.0000000   0.0000000   0.0000000   0.0000000
   0.0000000   0.0000000   0.0000000   0.0000000   0.0000000   0.0000000
   0.0000000   0.0000000   0.0000000   0.0000000   0.0000000   0.0000000
   0.0000000   0.0000000   0.0000000   0.0000000   0.0000000   0.0000000
   0.0000000   0.0000000   0.0000000   0.0000000   0.0000000   0.0000000
   0.0000000   0.0000000   0.0000000   0.0000000   0.0000000   0.0000000
   0.0000000   0.0000000   0.0000000   0.0000000   0.0000000   0.0000000
   0.0000000   0.0000000   0.0000000   0.0000000   0.0000000   0.0000000
   0.0000000   0.0000000   0.0000000   0.0000000   0.0000000   0.0000000
   0.0000000   0.0000000   0.0000000   0.0000000   0.0000000   0.0000000
   0.0000000   0.0000000   0.0000000   0.0000000   0.0000000   0.0000000
   0.0000000   0.0000000   0.0000000   0.0000000   0.0000000   0.0000000
   0.0000000   0.0000000   0.0000000   0.0000000   0.0000000   0.0000000
   0.0000000   0.0000000   0.0000000   0.0000000   0.0000000   0.0000000
   0.0000000   0.0000000   0.0000000   0.0000000   0.0000000   0.0000000
   0.0000000
 TTTTTTTTTTTTTTTTTTTTTTTTTTTTTT MOQGAD      TELAPSE    14588.85 TCPU    14291.33
 WARNING **** GENBUD **** COUL. BIPO BUFFER TOO SMALL - TO AVOID I/O SET BIPOSIZE =     2314475
 TTTTTTTTTTTTTTTTTTTTTTTTTTTTTT SHELLX      TELAPSE    14688.30 TCPU    14389.48
 TTTTTTTTTTTTTTTTTTTTTTTTTTTTTT MONMO3      TELAPSE    14697.85 TCPU    14399.01
 NUMERICALLY INTEGRATED DENSITY    878.5001060618    878.5001060618
 TTTTTTTTTTTTTTTTTTTTTTTTTTTTTT NUMDFT      TELAPSE    14704.39 TCPU    14405.54
 CYC  58 ETOT(AU) -3.085657200915E+04 DETOT -1.47E-07 tst  5.23E-12 PX  5.54E-05
 TTTTTTTTTTTTTTTTTTTTTTTTTTTTTT FDIK        TELAPSE    14836.01 TCPU    14534.34
 POSSIBLY CONDUCTING STATE - EFERMI(AU) -7.0107426E-02 (RES. CHARGE  0.00E+00;IT.  0)
 TTTTTTTTTTTTTTTTTTTTTTTTTTTTTT PDIG        TELAPSE    14839.30 TCPU    14537.62
 CHARGE NORMALIZATION FACTOR   1.00000000
 TOTAL ATOMIC CHARGES:
   1.1287416   1.1418875   1.0181105   1.0982741   1.0670391   1.0101027
   1.0203000   1.0512110   1.2065407   0.9499690   0.6518963   1.1337784
   1.0797859   1.0774734   1.0797258   1.0309186   1.2277115   1.1468916
   1.1146312   1.0798465   1.1010794   8.6958678   8.6167766   8.5638780
   8.6089904   8.7112220   8.6125354   8.6150554   8.6174221   8.5364797
   8.5492978   8.6848292   8.6745567   8.5391577   8.6699920   8.6766115
   8.7743353   8.6252210   8.5609144   8.6450359   8.6286235   8.5817704
   8.7080998   8.6393284   8.5899292   8.4927804   8.5611949   8.6617110
   8.6255589   8.7772769   8.6661302   8.8571326   8.7067449   8.4720328
   8.6992740   8.6052647   8.6720804   8.5455291   8.8104393   8.5208278
   8.5973607   8.5775954   8.5069381   8.5749396   8.5593592   8.7233109
   8.5923521   8.6994686   8.6418679   8.5361179   8.7977056   8.6350622
   8.5344155   8.8524196   8.5661480   8.7797551   8.6810966  13.4125130
  13.9737232  13.9789597  14.0164150  14.0541042  13.9872011  13.9926175
  13.9871478  13.6650489  13.4440399  14.0748310  13.6258767  14.0370790
  14.0843993  14.0041252  14.0144250  13.2977827  13.9503153  14.0593458
  13.9999174  14.0189446  14.0056609  13.9950441  13.9884165  13.3061172
  13.5014149  13.8924072  13.8432992  14.0421770  14.0200985  14.0072912
  13.9935628  13.9868085  14.0059434  14.0131836  13.9814474  14.0112686
  13.9735421  14.0025917  13.9791003  14.0192300  14.0082841  13.9790495
  14.1402926  13.5673532  13.5274512  14.0266612  14.0354532  14.0004948
  14.0746390  13.6668384  13.5884921  14.0218986  14.0517636  14.1086834
  14.0035693  13.9079384  13.7625647  14.0202407  14.0054725  13.6981945
  13.9833666  13.8444620  13.5855794  12.6629186  12.6441976  12.9450043
  12.6999660  12.9009290  12.8286428  13.4793956  12.9110806  13.1053889
  12.7787832  12.9778450  12.8239270  12.8839841  12.7712948  13.1946468
  12.7375189  13.2715995  12.9224252  12.7526494  12.6746225  12.9450713
  12.7555297  12.8838188  13.2837781  12.7518254  12.9331427  12.9662946
  12.5858234
 SUMMED SPIN DENSITY           0.00000000
 TOTAL ATOMIC SPINS  :
   0.0000000   0.0000000   0.0000000   0.0000000   0.0000000   0.0000000
   0.0000000   0.0000000   0.0000000   0.0000000   0.0000000   0.0000000
   0.0000000   0.0000000   0.0000000   0.0000000   0.0000000   0.0000000
   0.0000000   0.0000000   0.0000000   0.0000000   0.0000000   0.0000000
   0.0000000   0.0000000   0.0000000   0.0000000   0.0000000   0.0000000
   0.0000000   0.0000000   0.0000000   0.0000000   0.0000000   0.0000000
   0.0000000   0.0000000   0.0000000   0.0000000   0.0000000   0.0000000
   0.0000000   0.0000000   0.0000000   0.0000000   0.0000000   0.0000000
   0.0000000   0.0000000   0.0000000   0.0000000   0.0000000   0.0000000
   0.0000000   0.0000000   0.0000000   0.0000000   0.0000000   0.0000000
   0.0000000   0.0000000   0.0000000   0.0000000   0.0000000   0.0000000
   0.0000000   0.0000000   0.0000000   0.0000000   0.0000000   0.0000000
   0.0000000   0.0000000   0.0000000   0.0000000   0.0000000   0.0000000
   0.0000000   0.0000000   0.0000000   0.0000000   0.0000000   0.0000000
   0.0000000   0.0000000   0.0000000   0.0000000   0.0000000   0.0000000
   0.0000000   0.0000000   0.0000000   0.0000000   0.0000000   0.0000000
   0.0000000   0.0000000   0.0000000   0.0000000   0.0000000   0.0000000
   0.0000000   0.0000000   0.0000000   0.0000000   0.0000000   0.0000000
   0.0000000   0.0000000   0.0000000   0.0000000   0.0000000   0.0000000
   0.0000000   0.0000000   0.0000000   0.0000000   0.0000000   0.0000000
   0.0000000   0.0000000   0.0000000   0.0000000   0.0000000   0.0000000
   0.0000000   0.0000000   0.0000000   0.0000000   0.0000000   0.0000000
   0.0000000   0.0000000   0.0000000   0.0000000   0.0000000   0.0000000
   0.0000000   0.0000000   0.0000000   0.0000000   0.0000000   0.0000000
   0.0000000   0.0000000   0.0000000   0.0000000   0.0000000   0.0000000
   0.0000000   0.0000000   0.0000000   0.0000000   0.0000000   0.0000000
   0.0000000   0.0000000   0.0000000   0.0000000   0.0000000   0.0000000
   0.0000000   0.0000000   0.0000000   0.0000000   0.0000000   0.0000000
   0.0000000
 TTTTTTTTTTTTTTTTTTTTTTTTTTTTTT MOQGAD      TELAPSE    14839.38 TCPU    14537.70
 WARNING **** GENBUD **** COUL. BIPO BUFFER TOO SMALL - TO AVOID I/O SET BIPOSIZE =     2314475
 TTTTTTTTTTTTTTTTTTTTTTTTTTTTTT SHELLX      TELAPSE    14939.35 TCPU    14635.32
 TTTTTTTTTTTTTTTTTTTTTTTTTTTTTT MONMO3      TELAPSE    14947.57 TCPU    14643.52
 NUMERICALLY INTEGRATED DENSITY    878.5001060636    878.5001060636
 TTTTTTTTTTTTTTTTTTTTTTTTTTTTTT NUMDFT      TELAPSE    14954.13 TCPU    14650.08
 CYC  59 ETOT(AU) -3.085657200926E+04 DETOT -1.08E-07 tst  4.54E-12 PX  5.11E-05
 TTTTTTTTTTTTTTTTTTTTTTTTTTTTTT FDIK        TELAPSE    15069.88 TCPU    14761.71
 POSSIBLY CONDUCTING STATE - EFERMI(AU) -7.0107426E-02 (RES. CHARGE  0.00E+00;IT.  0)
 TTTTTTTTTTTTTTTTTTTTTTTTTTTTTT PDIG        TELAPSE    15073.12 TCPU    14764.96
 CHARGE NORMALIZATION FACTOR   1.00000000
 TOTAL ATOMIC CHARGES:
   1.1287494   1.1418931   1.0181133   1.0982780   1.0670435   1.0101005
   1.0202969   1.0512170   1.2065521   0.9499680   0.6518964   1.1337796
   1.0797869   1.0774788   1.0797311   1.0309248   1.2277140   1.1468947
   1.1146302   1.0798522   1.1010818   8.6958801   8.6167818   8.5638865
   8.6089849   8.7112267   8.6125394   8.6150528   8.6174318   8.5364858
   8.5493020   8.6848377   8.6745635   8.5391548   8.6699929   8.6766095
   8.7743465   8.6252238   8.5609261   8.6450502   8.6286310   8.5817686
   8.7080994   8.6393311   8.5899298   8.4927901   8.5612038   8.6617133
   8.6255681   8.7772941   8.6661369   8.8571367   8.7067475   8.4720370
   8.6992910   8.6052662   8.6720933   8.5455299   8.8104446   8.5208318
   8.5973653   8.5776053   8.5069423   8.5749357   8.5593685   8.7233140
   8.5923498   8.6994728   8.6418731   8.5361203   8.7977120   8.6350619
   8.5344112   8.8524410   8.5661431   8.7797564   8.6811020  13.4124936
  13.9737154  13.9789569  14.0164112  14.0541076  13.9871987  13.9926201
  13.9871462  13.6650478  13.4440358  14.0748331  13.6258753  14.0370865
  14.0844067  14.0041251  14.0144275  13.2977763  13.9503212  14.0593527
  13.9999199  14.0189448  14.0056639  13.9950430  13.9884166  13.3061072
  13.5014046  13.8923994  13.8432913  14.0421833  14.0201016  14.0072867
  13.9935611  13.9868041  14.0059395  14.0131852  13.9814428  14.0112701
  13.9735420  14.0025940  13.9791092  14.0192312  14.0082821  13.9790429
  14.1402956  13.5673466  13.5274570  14.0266680  14.0354574  14.0004983
  14.0746349  13.6668400  13.5884851  14.0218990  14.0517658  14.1086873
  14.0035792  13.9079416  13.7625627  14.0202312  14.0054678  13.6981930
  13.9833661  13.8444652  13.5855524  12.6628989  12.6441799  12.9449969
  12.6999569  12.9009120  12.8286408  13.4794004  12.9110605  13.1053843
  12.7787686  12.9778479  12.8239101  12.8839662  12.7712876  13.1946337
  12.7375049  13.2716032  12.9224218  12.7526443  12.6745957  12.9450513
  12.7555144  12.8838125  13.2837765  12.7518172  12.9331220  12.9662907
  12.5858242
 SUMMED SPIN DENSITY           0.00000000
 TOTAL ATOMIC SPINS  :
   0.0000000   0.0000000   0.0000000   0.0000000   0.0000000   0.0000000
   0.0000000   0.0000000   0.0000000   0.0000000   0.0000000   0.0000000
   0.0000000   0.0000000   0.0000000   0.0000000   0.0000000   0.0000000
   0.0000000   0.0000000   0.0000000   0.0000000   0.0000000   0.0000000
   0.0000000   0.0000000   0.0000000   0.0000000   0.0000000   0.0000000
   0.0000000   0.0000000   0.0000000   0.0000000   0.0000000   0.0000000
   0.0000000   0.0000000   0.0000000   0.0000000   0.0000000   0.0000000
   0.0000000   0.0000000   0.0000000   0.0000000   0.0000000   0.0000000
   0.0000000   0.0000000   0.0000000   0.0000000   0.0000000   0.0000000
   0.0000000   0.0000000   0.0000000   0.0000000   0.0000000   0.0000000
   0.0000000   0.0000000   0.0000000   0.0000000   0.0000000   0.0000000
   0.0000000   0.0000000   0.0000000   0.0000000   0.0000000   0.0000000
   0.0000000   0.0000000   0.0000000   0.0000000   0.0000000   0.0000000
   0.0000000   0.0000000   0.0000000   0.0000000   0.0000000   0.0000000
   0.0000000   0.0000000   0.0000000   0.0000000   0.0000000   0.0000000
   0.0000000   0.0000000   0.0000000   0.0000000   0.0000000   0.0000000
   0.0000000   0.0000000   0.0000000   0.0000000   0.0000000   0.0000000
   0.0000000   0.0000000   0.0000000   0.0000000   0.0000000   0.0000000
   0.0000000   0.0000000   0.0000000   0.0000000   0.0000000   0.0000000
   0.0000000   0.0000000   0.0000000   0.0000000   0.0000000   0.0000000
   0.0000000   0.0000000   0.0000000   0.0000000   0.0000000   0.0000000
   0.0000000   0.0000000   0.0000000   0.0000000   0.0000000   0.0000000
   0.0000000   0.0000000   0.0000000   0.0000000   0.0000000   0.0000000
   0.0000000   0.0000000   0.0000000   0.0000000   0.0000000   0.0000000
   0.0000000   0.0000000   0.0000000   0.0000000   0.0000000   0.0000000
   0.0000000   0.0000000   0.0000000   0.0000000   0.0000000   0.0000000
   0.0000000   0.0000000   0.0000000   0.0000000   0.0000000   0.0000000
   0.0000000   0.0000000   0.0000000   0.0000000   0.0000000   0.0000000
   0.0000000
 TTTTTTTTTTTTTTTTTTTTTTTTTTTTTT MOQGAD      TELAPSE    15073.20 TCPU    14765.03
 WARNING **** GENBUD **** COUL. BIPO BUFFER TOO SMALL - TO AVOID I/O SET BIPOSIZE =     2314475
 TTTTTTTTTTTTTTTTTTTTTTTTTTTTTT SHELLX      TELAPSE    15172.64 TCPU    14863.28
 TTTTTTTTTTTTTTTTTTTTTTTTTTTTTT MONMO3      TELAPSE    15208.85 TCPU    14899.44
 NUMERICALLY INTEGRATED DENSITY    878.5001060653    878.5001060653
 TTTTTTTTTTTTTTTTTTTTTTTTTTTTTT NUMDFT      TELAPSE    15215.46 TCPU    14906.04
 CYC  60 ETOT(AU) -3.085657200934E+04 DETOT -7.28E-08 tst  3.94E-12 PX  4.66E-05
 TTTTTTTTTTTTTTTTTTTTTTTTTTTTTT FDIK        TELAPSE    15332.37 TCPU    15019.25
 POSSIBLY CONDUCTING STATE - EFERMI(AU) -7.0107426E-02 (RES. CHARGE  0.00E+00;IT.  0)
 TTTTTTTTTTTTTTTTTTTTTTTTTTTTTT PDIG        TELAPSE    15335.63 TCPU    15022.50
 CHARGE NORMALIZATION FACTOR   1.00000000
 TOTAL ATOMIC CHARGES:
   1.1287568   1.1418984   1.0181159   1.0982818   1.0670479   1.0100985
   1.0202942   1.0512227   1.2065628   0.9499671   0.6518963   1.1337809
   1.0797880   1.0774839   1.0797362   1.0309306   1.2277165   1.1468981
   1.1146297   1.0798576   1.1010843   8.6958916   8.6167866   8.5638945
   8.6089800   8.7112309   8.6125431   8.6150506   8.6174409   8.5364916
   8.5493059   8.6848457   8.6745699   8.5391521   8.6699939   8.6766078
   8.7743567   8.6252267   8.5609370   8.6450636   8.6286382   8.5817670
   8.7080990   8.6393338   8.5899305   8.4927991   8.5612122   8.6617156
   8.6255768   8.7773100   8.6661430   8.8571405   8.7067501   8.4720409
   8.6993068   8.6052676   8.6721053   8.5455309   8.8104495   8.5208356
   8.5973696   8.5776144   8.5069463   8.5749323   8.5593772   8.7233169
   8.5923480   8.6994768   8.6418782   8.5361226   8.7977180   8.6350620
   8.5344075   8.8524607   8.5661388   8.7797576   8.6811072  13.4124756
  13.9737081  13.9789543  14.0164077  14.0541108  13.9871966  13.9926226
  13.9871447  13.6650468  13.4440319  14.0748351  13.6258740  14.0370935
  14.0844136  14.0041250  14.0144298  13.2977703  13.9503267  14.0593590
  13.9999221  14.0189451  14.0056667  13.9950419  13.9884166  13.3060978
  13.5013951  13.8923922  13.8432838  14.0421890  14.0201043  14.0072825
  13.9935594  13.9868002  14.0059361  14.0131867  13.9814386  14.0112715
  13.9735420  14.0025961  13.9791173  14.0192323  14.0082802  13.9790368
  14.1402985  13.5673403  13.5274621  14.0266742  14.0354614  14.0005016
  14.0746312  13.6668414  13.5884789  14.0218992  14.0517679  14.1086909
  14.0035884  13.9079444  13.7625607  14.0202223  14.0054635  13.6981917
  13.9833656  13.8444681  13.5855274  12.6628803  12.6441632  12.9449902
  12.6999481  12.9008961  12.8286386  13.4794044  12.9110414  13.1053798
  12.7787547  12.9778500  12.8238943  12.8839498  12.7712804  13.1946213
  12.7374917  13.2716066  12.9224186  12.7526393  12.6745706  12.9450327
  12.7555001  12.8838066  13.2837748  12.7518092  12.9331023  12.9662866
  12.5858246
 SUMMED SPIN DENSITY           0.00000000
 TOTAL ATOMIC SPINS  :
   0.0000000   0.0000000   0.0000000   0.0000000   0.0000000   0.0000000
   0.0000000   0.0000000   0.0000000   0.0000000   0.0000000   0.0000000
   0.0000000   0.0000000   0.0000000   0.0000000   0.0000000   0.0000000
   0.0000000   0.0000000   0.0000000   0.0000000   0.0000000   0.0000000
   0.0000000   0.0000000   0.0000000   0.0000000   0.0000000   0.0000000
   0.0000000   0.0000000   0.0000000   0.0000000   0.0000000   0.0000000
   0.0000000   0.0000000   0.0000000   0.0000000   0.0000000   0.0000000
   0.0000000   0.0000000   0.0000000   0.0000000   0.0000000   0.0000000
   0.0000000   0.0000000   0.0000000   0.0000000   0.0000000   0.0000000
   0.0000000   0.0000000   0.0000000   0.0000000   0.0000000   0.0000000
   0.0000000   0.0000000   0.0000000   0.0000000   0.0000000   0.0000000
   0.0000000   0.0000000   0.0000000   0.0000000   0.0000000   0.0000000
   0.0000000   0.0000000   0.0000000   0.0000000   0.0000000   0.0000000
   0.0000000   0.0000000   0.0000000   0.0000000   0.0000000   0.0000000
   0.0000000   0.0000000   0.0000000   0.0000000   0.0000000   0.0000000
   0.0000000   0.0000000   0.0000000   0.0000000   0.0000000   0.0000000
   0.0000000   0.0000000   0.0000000   0.0000000   0.0000000   0.0000000
   0.0000000   0.0000000   0.0000000   0.0000000   0.0000000   0.0000000
   0.0000000   0.0000000   0.0000000   0.0000000   0.0000000   0.0000000
   0.0000000   0.0000000   0.0000000   0.0000000   0.0000000   0.0000000
   0.0000000   0.0000000   0.0000000   0.0000000   0.0000000   0.0000000
   0.0000000   0.0000000   0.0000000   0.0000000   0.0000000   0.0000000
   0.0000000   0.0000000   0.0000000   0.0000000   0.0000000   0.0000000
   0.0000000   0.0000000   0.0000000   0.0000000   0.0000000   0.0000000
   0.0000000   0.0000000   0.0000000   0.0000000   0.0000000   0.0000000
   0.0000000   0.0000000   0.0000000   0.0000000   0.0000000   0.0000000
   0.0000000   0.0000000   0.0000000   0.0000000   0.0000000   0.0000000
   0.0000000   0.0000000   0.0000000   0.0000000   0.0000000   0.0000000
   0.0000000
 TTTTTTTTTTTTTTTTTTTTTTTTTTTTTT MOQGAD      TELAPSE    15335.70 TCPU    15022.57
 WARNING **** GENBUD **** COUL. BIPO BUFFER TOO SMALL - TO AVOID I/O SET BIPOSIZE =     2314475
 TTTTTTTTTTTTTTTTTTTTTTTTTTTTTT SHELLX      TELAPSE    15435.33 TCPU    15122.03
 +++ ENERGIES IN A.U. +++
 ::: EXT EL-POLE                                  -4.4252597178288E+04
 ::: EXT EL-SPHEROPOLE                             3.1782547076636E+02
 ::: BIELET ZONE E-E                               5.3588149105865E+04
 ::: TOTAL E-E                                     9.6533773983425E+03
 ::: TOTAL E-N + N-E                              -6.3812103244471E+04
 ::: TOTAL N-N                                    -5.1540406803418E+03
 ::: KINETIC ENERGY                                3.0752053509274E+04
 ::: PSEUDO TOTAL   ENERGY                        -2.8560713017196E+04
 ::: VIRIAL COEFFICIENT                            1.0369455114035E+00
 TTTTTTTTTTTTTTTTTTTTTTTTTTTTTT MONMO3      TELAPSE    15443.57 TCPU    15130.25
 NUMERICALLY INTEGRATED DENSITY    878.5001060667    878.5001060667
 TTTTTTTTTTTTTTTTTTTTTTTTTTTTTT NUMDFT      TELAPSE    15450.12 TCPU    15136.78
 CYC  61 ETOT(AU) -3.085657200938E+04 DETOT -4.65E-08 tst  3.41E-12 PX  4.66E-05

 == SCF ENDED - CONVERGENCE ON ENERGY      E(AU) -3.0856572009382E+04 CYCLES  61


 ENERGY EXPRESSION=HARTREE+FOCK EXCH*0.05000+(BECKE  EXCH)*0.95000+LYP    CORR

 FINITE TEMPERATURE DFT CALCULATION 
 TEMPERATURE      (T)    1.000000000000E-13 HARTREE 
 ENERGY           (E)   -3.085657200938E+04
 FREE ENERGY      (F)   -3.085657200938E+04
 ELECTRON ENTROPY (S)    0.000000000000E+00
 (E(T)+F(T))/2    (E0)  -3.085657200938E+04


 TOTAL ENERGY(DFT)(AU)( 61) -3.0856572009382E+04 DE-4.7E-08 tester 3.4E-12
 TTTTTTTTTTTTTTTTTTTTTTTTTTTTTT EDFT        TELAPSE    15450.34 TCPU    15136.98
 EIGENVECTORS IN FORTRAN UNIT 10
 TTTTTTTTTTTTTTTTTTTTTTTTTTTTTT END         TELAPSE    15495.43 TCPU    15181.90
 EEEEEEEEEE TERMINATION  DATE 07 10 2014 TIME 23:15:56.0
NODE    0 CPU TIME =     15181.901
    TOTAL CPU TIME =   2925547.651
