--------------------------------------------------------------------------
WARNING: Open MPI will create a shared memory backing file in a
directory that appears to be mounted on a network filesystem.
Creating the shared memory backup file on a network file system, such
as NFS or Lustre is not recommended -- it may cause excessive network
traffic to your file servers and/or cause shared memory traffic in
Open MPI to be much slower than expected.

You may want to check what the typical temporary directory is on your
node.  Possible sources of the location of this temporary directory
include the $TEMPDIR, $TEMP, and $TMP environment variables.

Note, too, that system administrators can set a list of filesystems
where Open MPI is disallowed from creating temporary files by settings
the MCA parameter "orte_no_session_dir".

  Local host: r2i5n13
  Fileame:    /ichec/work/scratch/tmp/489040/openmpi-sessions-emehes@r2i5n13_0/60117/1/shared_mem_pool.r2i5n13

You can set the MCA paramter shmem_mmap_enable_nfs_warning to 0 to
disable this message.
--------------------------------------------------------------------------
         192 PROCESSORS WORKING

         
 *******************************************************************************
 *                                                                             *
 *                                CRYSTAL09                                    *
 *                              public : 2.0                                   *
 *                      December 10th, 2012 - parallel executable              *
 *                                                                             *
 *                                                                             *
 *                                                                             *
 *                              MAIN AUTHORS                                   *
 *                                                                             *
 *    R. DOVESI(1,10), V.R. SAUNDERS(2), C. ROETTI(1,10), R. ORLANDO (1,3),    *
 *  C.M. ZICOVICH-WILSON(1,4), F. PASCALE(5), B. CIVALLERI(1,10), K. DOLL(6),  *
 *       N.M. HARRISON(2,7), I. J. BUSH(2), Ph. D'ARCO(8), M. LLUNELL(9)       *
 *                                                                             *
 * (1) THEORETICAL CHEMISTRY GROUP - UNIVERSITA' DI TORINO - TORINO (ITALY)    *
 *      http://www.crystal.unito.it                                            *
 * (2) COMPUTATIONAL SCIENCE & ENGINEERING DEPARTMENT - STFC DARESBURY LABORATO*Y (UK)
 *     http://www.cse.stfc.ac.uk/cmg/CRYSTAL/                                  *
 * (3) UNIVERSITA' DEL PIEMONTE ORIENTALE - ALESSANDRIA (ITALY)                *
 * (4) UNIVERSIDAD AUTONOMA DEL ESTADO DE MORELOS - CUERNAVACA (MEXICO)        *
 * (5) UNIVERSITE' HENRI POINCARE' - NANCY (FRANCE)                            *
 * (6) MPI FUER FESTKOERPERFORSCHUNG - STUTTGART (GERMANY)                     *
 * (7) IMPERIAL COLLEGE - LONDON (UK)                                          *
 * (8) UNIVERSITE' PIERRE ET MARIE CURIE - PARIS (FRANCE)                      *
 * (9) UNIVERSIDAD DE BARCELONA - BARCELONA (SPAIN)                            *
 *(10) NIS - NANOSTRUCTURED INTERFACES AND SURFACES - TORINO (ITALY)           *
 *     http://www.crystal.unito.it                                             *
 *******************************************************************************
 EEEEEEEEEE STARTING  DATE 21 04 2015 TIME 00:06:38.2
 Created with astools                                                            

 CRYSTAL CALCULATION
 (INPUT ACCORDING TO THE INTERNATIONAL TABLES FOR X-RAY CRYSTALLOGRAPHY)
 CRYSTAL FAMILY                       :  TRICLINIC   
 CRYSTAL CLASS  (GROTH - 1921)        :  TRICLINIC PEDIAL                     

 SPACE GROUP (NONCENTROSYMMETRIC)     :  P 1             

 LATTICE PARAMETERS  (ANGSTROMS AND DEGREES) - CONVENTIONAL CELL
        A           B           C        ALPHA        BETA       GAMMA
    10.48610    10.85380    22.52820    90.00000    90.00000    90.00000


 NUMBER OF IRREDUCIBLE ATOMS IN THE CONVENTIONAL CELL:  156

 INPUT COORDINATES

 ATOM AT. N.              COORDINATES
   1   8     1.075160000000E-01 -9.850000000000E-03  8.320100000000E-02
   2   8     7.760400000000E-02  5.711540000000E-01  4.850100000000E-02
   3   8     5.908620000000E-01  4.258600000000E-02  7.018000000000E-02
   4   8     5.461250000000E-01  5.746260000000E-01  8.058200000000E-02
   5   8     5.006260000000E-01  8.039790000000E-01  3.084600000000E-02
   6   8     5.306950000000E-01  3.914880000000E-01  6.527000000000E-03
   7   8     8.045860000000E-01  6.387610000000E-01 -1.216000000000E-03
   8   8     2.717390000000E-01  9.021770000000E-01  1.003886000000E+00
   9   8     1.657910000000E-01  4.319570000000E-01  5.417410000000E-01
  10   8     1.843260000000E-01  9.511110000000E-01  5.575610000000E-01
  11   8     5.946690000000E-01  4.223540000000E-01  5.247530000000E-01
  12   8     6.795930000000E-01  9.486960000000E-01  5.467020000000E-01
  13   8     8.701620000000E-01  3.912040000000E-01  5.359710000000E-01
  14   8     4.858380000000E-01  2.986810000000E-01  6.739470000000E-01
  15   8     6.989930000000E-01  4.858630000000E-01  6.089550000000E-01
  16   8     5.285130000000E-01  6.657730000000E-01  5.896020000000E-01
  17   8     3.555010000000E-01  2.846260000000E-01  5.773440000000E-01
  18   8     6.954360000000E-01  2.106010000000E-01  5.302530000000E-01
  19   8     9.964140000000E-01  1.311740000000E-01  5.832070000000E-01
  20   8     1.210230000000E-01  6.529340000000E-01  5.954930000000E-01
  21   8     1.005732000000E+00  8.087730000000E-01  6.671450000000E-01
  22   8     7.867260000000E-01  7.732060000000E-01  6.057500000000E-01
  23   8     5.178330000000E-01  9.013570000000E-01  6.332200000000E-01
  24   8     3.228660000000E-01  1.044580000000E-01  6.501690000000E-01
  25   8     2.425800000000E-01  8.626220000000E-01  8.275830000000E-01
  26   8     2.361820000000E-01  3.432900000000E-01  6.808660000000E-01
  27   8     1.784980000000E-01  2.776080000000E-01  8.808730000000E-01
  28   8     1.573850000000E-01  5.985710000000E-01  7.066340000000E-01
  29   8     3.335600000000E-01  8.578000000000E-02  8.472670000000E-01
  30   8     6.621950000000E-01  1.582430000000E-01  7.457220000000E-01
  31   8     1.663400000000E-01  6.369790000000E-01  9.390070000000E-01
  32   8     8.275820000000E-01  9.815200000000E-02  8.297480000000E-01
  33   8     4.324520000000E-01  4.635800000000E-01  9.089450000000E-01
  34   8     2.565780000000E-01  5.328520000000E-01  8.332630000000E-01
  35   8     7.575000000000E-03  8.856020000000E-01  7.768610000000E-01
  36   8     9.574690000000E-01  8.030910000000E-01  5.524100000000E-02
  37   8     1.196610000000E-01  2.408200000000E-02  6.960830000000E-01
  38   8     8.380450000000E-01  4.819040000000E-01  7.930450000000E-01
  39   8     4.783740000000E-01  6.399630000000E-01  8.289630000000E-01
  40   8     7.165560000000E-01  9.182510000000E-01  7.813670000000E-01
  41   8     4.845110000000E-01  1.898000000000E-03  9.560860000000E-01
  42   8     4.934800000000E-01  8.856410000000E-01  8.316650000000E-01
  43   8     4.153570000000E-01  7.771360000000E-01  9.254280000000E-01
  44   8     9.194250000000E-01  1.019120000000E-01  9.390060000000E-01
  45   8     6.729580000000E-01  1.600110000000E-01  9.306450000000E-01
  46   8     8.506280000000E-01  5.961570000000E-01  6.888490000000E-01
  47   8     3.110800000000E-02  9.201750000000E-01  8.880960000000E-01
  48   8     1.763360000000E-01  8.735600000000E-02  9.428190000000E-01
  49   8     3.372780000000E-01  6.277440000000E-01  1.922000000000E-02
  50   8     3.534100000000E-02  4.780730000000E-01  8.769220000000E-01
  51   8     8.944300000000E-02  3.421590000000E-01  7.783190000000E-01
  52   8     8.950210000000E-01  3.034910000000E-01  8.743530000000E-01
  53   8     8.730500000000E-01  3.414700000000E-02  7.112500000000E-01
  54   8     3.608640000000E-01  9.817080000000E-01  7.430630000000E-01
  55   8     4.638770000000E-01  4.063940000000E-01  7.909700000000E-01
  56   8     6.292690000000E-01  7.191630000000E-01  7.004950000000E-01
  57   8     9.274110000000E-01  3.692240000000E-01  6.884590000000E-01
  58   8     6.742700000000E-01  3.170960000000E-01  8.348540000000E-01
  59   8     2.523920000000E-01  8.302160000000E-01  6.678310000000E-01
  60   8     6.564670000000E-01  7.296680000000E-01  8.998460000000E-01
  61   8     7.383970000000E-01  5.012590000000E-01  9.088170000000E-01
  62   8     6.639400000000E-02  6.970190000000E-01  8.367170000000E-01
  63   8     6.694890000000E-01  4.040470000000E-01  7.207960000000E-01
  64   8     4.033530000000E-01  2.238630000000E-01  9.350360000000E-01
  65  14     1.611340000000E-01  4.501620000000E-01  8.965600000000E-02
  66  14     4.778950000000E-01  1.486020000000E-01  7.820300000000E-02
  67  14     5.822500000000E-02  2.875470000000E-01  1.465940000000E-01
  68  14     3.584580000000E-01  9.339200000000E-02  1.628310000000E-01
  69  14     1.965190000000E-01  1.929080000000E-01  2.159490000000E-01
  70  14     4.358070000000E-01  4.265850000000E-01  2.152930000000E-01
  71  14     1.083400000000E-01  8.793090000000E-01  2.911100000000E-02
  72  14     4.955710000000E-01  6.514230000000E-01  2.173000000000E-02
  73  14     2.214200000000E-02  7.606530000000E-01  1.792850000000E-01
  74  14     2.832730000000E-01  5.357630000000E-01  1.629710000000E-01
  75  14     1.999630000000E-01  6.832980000000E-01  2.235720000000E-01
  76  14     4.502130000000E-01  9.352780000000E-01  2.196430000000E-01
  77  14     6.113310000000E-01  4.320320000000E-01  6.930100000000E-02
  78  14    -9.392000000000E-03  1.031120000000E-01  8.351600000000E-02
  79  14     5.450740000000E-01  2.793660000000E-01  1.572500000000E-01
  80  14     8.188660000000E-01  3.425500000000E-02  1.560620000000E-01
  81  14     7.025090000000E-01  1.779800000000E-01  2.150100000000E-01
  82  14     9.508530000000E-01  4.266470000000E-01  2.117330000000E-01
  83  14     6.938720000000E-01  9.238320000000E-01  7.769200000000E-02
  84  14     8.973590000000E-01  6.656020000000E-01  5.737200000000E-02
  85  14     6.232330000000E-01  8.541460000000E-01  1.683150000000E-01
  86  14     8.701330000000E-01  6.034780000000E-01  1.599960000000E-01
  87  14     7.078210000000E-01  6.902270000000E-01  2.193600000000E-01
  88  14     9.378530000000E-01  9.296470000000E-01  2.270170000000E-01
  89  14     7.518600000000E-02  5.996200000000E-02  2.783910000000E-01
  90  14     3.141590000000E-01  3.126590000000E-01  2.831490000000E-01
  91  14     6.595900000000E-02  5.533510000000E-01  2.805320000000E-01
  92  14     3.206600000000E-01  8.152340000000E-01  2.824180000000E-01
  93  14     5.763140000000E-01  5.908100000000E-02  2.812430000000E-01
  94  14     8.185940000000E-01  3.115140000000E-01  2.781220000000E-01
  95  14     5.724330000000E-01  5.573790000000E-01  2.713410000000E-01
  96  14     8.196660000000E-01  8.041290000000E-01  2.916720000000E-01
  97  14     6.822130000000E-01  6.190280000000E-01  9.510340000000E-01
  98  14     1.842930000000E-01  6.704200000000E-01  1.009912000000E+00
  99  14     4.128220000000E-01  8.779930000000E-01  9.807130000000E-01
 100  14     1.881320000000E-01  4.342460000000E-01  3.471010000000E-01
 101  14     4.440690000000E-01  1.838790000000E-01  3.386240000000E-01
 102  14     5.796600000000E-02  3.063470000000E-01  4.068280000000E-01
 103  14     3.189390000000E-01  6.698900000000E-02  4.025830000000E-01
 104  14     1.828580000000E-01  1.785820000000E-01  4.648260000000E-01
 105  14     4.266560000000E-01  4.243690000000E-01  4.557180000000E-01
 106  14     1.901680000000E-01  9.357890000000E-01  3.450120000000E-01
 107  14     4.545180000000E-01  6.843790000000E-01  3.356660000000E-01
 108  14     6.496000000000E-02  8.080510000000E-01  4.080810000000E-01
 109  14     3.234650000000E-01  5.723020000000E-01  3.978660000000E-01
 110  14     2.201360000000E-01  7.066400000000E-01  4.621780000000E-01
 111  14     4.178560000000E-01  9.237340000000E-01  4.614980000000E-01
 112  14     6.918270000000E-01  4.405260000000E-01  3.394070000000E-01
 113  14     9.441070000000E-01  1.815990000000E-01  3.401760000000E-01
 114  14     5.668840000000E-01  3.092950000000E-01  3.982570000000E-01
 115  14     8.229420000000E-01  5.561900000000E-02  4.076910000000E-01
 116  14     7.244150000000E-01  2.183210000000E-01  4.565810000000E-01
 117  14     8.820360000000E-01  3.765150000000E-01  4.611640000000E-01
 118  14     6.901800000000E-01  9.326360000000E-01  3.494590000000E-01
 119  14     9.456520000000E-01  6.732230000000E-01  3.490960000000E-01
 120  14     5.616670000000E-01  8.034690000000E-01  4.086170000000E-01
 121  14     8.141800000000E-01  5.537810000000E-01  4.102680000000E-01
 122  14     6.909030000000E-01  6.818310000000E-01  4.729720000000E-01
 123  14     9.387820000000E-01  9.278630000000E-01  4.741210000000E-01
 124  14     7.598400000000E-02  4.854700000000E-02  5.302770000000E-01
 125  14     2.784740000000E-01  3.338110000000E-01  5.186310000000E-01
 126  14     2.219710000000E-01  5.790880000000E-01  5.476050000000E-01
 127  14     2.988010000000E-01  8.434350000000E-01  5.385370000000E-01
 128  14     5.562750000000E-01  1.619600000000E-02  5.804440000000E-01
 129  14     7.277670000000E-01  3.462830000000E-01  5.658950000000E-01
 130  14     6.195600000000E-01  5.624290000000E-01  5.531380000000E-01
 131  14     7.804410000000E-01  8.341410000000E-01  5.350570000000E-01
 132  14     3.453840000000E-01  2.547390000000E-01  6.473730000000E-01
 133  14     1.431770000000E-01  7.168850000000E-01  6.600710000000E-01
 134  14     5.337970000000E-01  4.505420000000E-01  6.780110000000E-01
 135  14     9.013160000000E-01  2.248580000000E-01  6.251020000000E-01
 136  14     5.578690000000E-01  7.608270000000E-01  6.425260000000E-01
 137  14     8.222820000000E-01  7.431960000000E-01  6.772790000000E-01
 138  14     2.719380000000E-01  1.643990000000E-01  9.015790000000E-01
 139  14     3.609940000000E-01  9.549940000000E-01  8.134820000000E-01
 140  14     7.649400000000E-01  5.620000000000E-02  7.660140000000E-01
 141  14    -3.847000000000E-03  9.401770000000E-01  7.103680000000E-01
 142  14     1.392640000000E-01  5.892440000000E-01  8.727120000000E-01
 143  14     7.847360000000E-01  7.813580000000E-01  7.793850000000E-01
 144  14     5.145590000000E-01  7.583330000000E-01  8.700740000000E-01
 145  14     8.123890000000E-01  1.579780000000E-01  8.952050000000E-01
 146  14     3.834060000000E-01  3.928140000000E-01  9.723610000000E-01
 147  14     5.788800000000E-02  3.429390000000E-01  8.489130000000E-01
 148  14     9.068200000000E-02  8.434660000000E-01  8.344210000000E-01
 149  14     5.316670000000E-01  1.443170000000E-01  9.701200000000E-01
 150  14     5.816090000000E-01  2.864720000000E-01  7.755290000000E-01
 151  14     8.230110000000E-01  4.624940000000E-01  7.194860000000E-01
 152  14     2.684200000000E-01  9.818690000000E-01  6.852180000000E-01
 153  14     4.244500000000E-02  5.612000000000E-03  9.486300000000E-01
 154  14     1.294770000000E-01  4.312140000000E-01  7.162720000000E-01
 155  14     4.109460000000E-01  5.047470000000E-01  8.401310000000E-01
 156  14     7.822700000000E-01  4.173180000000E-01  8.531030000000E-01

 *******************************************************************************

 << INFORMATION >>: FROM NOW ON, ALL COORDINATES REFER TO THE PRIMITIVE CELL

 *******************************************************************************

 LATTICE PARAMETERS  (ANGSTROMS AND DEGREES) - PRIMITIVE CELL
       A          B          C         ALPHA     BETA     GAMMA        VOLUME
   10.48610   10.85380   22.52820    90.00000  90.00000  90.00000   2564.025280

 COORDINATES OF THE EQUIVALENT ATOMS (FRACTIONAL UNITS)

 N. ATOM EQUIV AT. N.          X                  Y                  Z

   1   1   1    8 O     1.07516000000E-01 -9.85000000000E-03  8.32010000000E-02

   2   2   1    8 O     7.76040000000E-02 -4.28846000000E-01  4.85010000000E-02

   3   3   1    8 O    -4.09138000000E-01  4.25860000000E-02  7.01800000000E-02

   4   4   1    8 O    -4.53875000000E-01 -4.25374000000E-01  8.05820000000E-02

   5   5   1    8 O    -4.99374000000E-01 -1.96021000000E-01  3.08460000000E-02

   6   6   1    8 O    -4.69305000000E-01  3.91488000000E-01  6.52700000000E-03

   7   7   1    8 O    -1.95414000000E-01 -3.61239000000E-01 -1.21600000000E-03

   8   8   1    8 O     2.71739000000E-01 -9.78230000000E-02  3.88600000000E-03

   9   9   1    8 O     1.65791000000E-01  4.31957000000E-01 -4.58259000000E-01

  10  10   1    8 O     1.84326000000E-01 -4.88890000000E-02 -4.42439000000E-01

  11  11   1    8 O    -4.05331000000E-01  4.22354000000E-01 -4.75247000000E-01

  12  12   1    8 O    -3.20407000000E-01 -5.13040000000E-02 -4.53298000000E-01

  13  13   1    8 O    -1.29838000000E-01  3.91204000000E-01 -4.64029000000E-01

  14  14   1    8 O     4.85838000000E-01  2.98681000000E-01 -3.26053000000E-01

  15  15   1    8 O    -3.01007000000E-01  4.85863000000E-01 -3.91045000000E-01

  16  16   1    8 O    -4.71487000000E-01 -3.34227000000E-01 -4.10398000000E-01

  17  17   1    8 O     3.55501000000E-01  2.84626000000E-01 -4.22656000000E-01

  18  18   1    8 O    -3.04564000000E-01  2.10601000000E-01 -4.69747000000E-01

  19  19   1    8 O    -3.58600000000E-03  1.31174000000E-01 -4.16793000000E-01

  20  20   1    8 O     1.21023000000E-01 -3.47066000000E-01 -4.04507000000E-01

  21  21   1    8 O     5.73200000000E-03 -1.91227000000E-01 -3.32855000000E-01

  22  22   1    8 O    -2.13274000000E-01 -2.26794000000E-01 -3.94250000000E-01

  23  23   1    8 O    -4.82167000000E-01 -9.86430000000E-02 -3.66780000000E-01

  24  24   1    8 O     3.22866000000E-01  1.04458000000E-01 -3.49831000000E-01

  25  25   1    8 O     2.42580000000E-01 -1.37378000000E-01 -1.72417000000E-01

  26  26   1    8 O     2.36182000000E-01  3.43290000000E-01 -3.19134000000E-01

  27  27   1    8 O     1.78498000000E-01  2.77608000000E-01 -1.19127000000E-01

  28  28   1    8 O     1.57385000000E-01 -4.01429000000E-01 -2.93366000000E-01

  29  29   1    8 O     3.33560000000E-01  8.57800000000E-02 -1.52733000000E-01

  30  30   1    8 O    -3.37805000000E-01  1.58243000000E-01 -2.54278000000E-01

  31  31   1    8 O     1.66340000000E-01 -3.63021000000E-01 -6.09930000000E-02

  32  32   1    8 O    -1.72418000000E-01  9.81520000000E-02 -1.70252000000E-01

  33  33   1    8 O     4.32452000000E-01  4.63580000000E-01 -9.10550000000E-02

  34  34   1    8 O     2.56578000000E-01 -4.67148000000E-01 -1.66737000000E-01

  35  35   1    8 O     7.57500000000E-03 -1.14398000000E-01 -2.23139000000E-01

  36  36   1    8 O    -4.25310000000E-02 -1.96909000000E-01  5.52410000000E-02

  37  37   1    8 O     1.19661000000E-01  2.40820000000E-02 -3.03917000000E-01

  38  38   1    8 O    -1.61955000000E-01  4.81904000000E-01 -2.06955000000E-01

  39  39   1    8 O     4.78374000000E-01 -3.60037000000E-01 -1.71037000000E-01

  40  40   1    8 O    -2.83444000000E-01 -8.17490000000E-02 -2.18633000000E-01

  41  41   1    8 O     4.84511000000E-01  1.89800000000E-03 -4.39140000000E-02

  42  42   1    8 O     4.93480000000E-01 -1.14359000000E-01 -1.68335000000E-01

  43  43   1    8 O     4.15357000000E-01 -2.22864000000E-01 -7.45720000000E-02

  44  44   1    8 O    -8.05750000000E-02  1.01912000000E-01 -6.09940000000E-02

  45  45   1    8 O    -3.27042000000E-01  1.60011000000E-01 -6.93550000000E-02

  46  46   1    8 O    -1.49372000000E-01 -4.03843000000E-01 -3.11151000000E-01

  47  47   1    8 O     3.11080000000E-02 -7.98250000000E-02 -1.11904000000E-01

  48  48   1    8 O     1.76336000000E-01  8.73560000000E-02 -5.71810000000E-02

  49  49   1    8 O     3.37278000000E-01 -3.72256000000E-01  1.92200000000E-02

  50  50   1    8 O     3.53410000000E-02  4.78073000000E-01 -1.23078000000E-01

  51  51   1    8 O     8.94430000000E-02  3.42159000000E-01 -2.21681000000E-01

  52  52   1    8 O    -1.04979000000E-01  3.03491000000E-01 -1.25647000000E-01

  53  53   1    8 O    -1.26950000000E-01  3.41470000000E-02 -2.88750000000E-01

  54  54   1    8 O     3.60864000000E-01 -1.82920000000E-02 -2.56937000000E-01

  55  55   1    8 O     4.63877000000E-01  4.06394000000E-01 -2.09030000000E-01

  56  56   1    8 O    -3.70731000000E-01 -2.80837000000E-01 -2.99505000000E-01

  57  57   1    8 O    -7.25890000000E-02  3.69224000000E-01 -3.11541000000E-01

  58  58   1    8 O    -3.25730000000E-01  3.17096000000E-01 -1.65146000000E-01

  59  59   1    8 O     2.52392000000E-01 -1.69784000000E-01 -3.32169000000E-01

  60  60   1    8 O    -3.43533000000E-01 -2.70332000000E-01 -1.00154000000E-01

  61  61   1    8 O    -2.61603000000E-01 -4.98741000000E-01 -9.11830000000E-02

  62  62   1    8 O     6.63940000000E-02 -3.02981000000E-01 -1.63283000000E-01

  63  63   1    8 O    -3.30511000000E-01  4.04047000000E-01 -2.79204000000E-01

  64  64   1    8 O     4.03353000000E-01  2.23863000000E-01 -6.49640000000E-02

  65  65   1   14 SI    1.61134000000E-01  4.50162000000E-01  8.96560000000E-02

  66  66   1   14 SI    4.77895000000E-01  1.48602000000E-01  7.82030000000E-02

  67  67   1   14 SI    5.82250000000E-02  2.87547000000E-01  1.46594000000E-01

  68  68   1   14 SI    3.58458000000E-01  9.33920000000E-02  1.62831000000E-01

  69  69   1   14 SI    1.96519000000E-01  1.92908000000E-01  2.15949000000E-01

  70  70   1   14 SI    4.35807000000E-01  4.26585000000E-01  2.15293000000E-01

  71  71   1   14 SI    1.08340000000E-01 -1.20691000000E-01  2.91110000000E-02

  72  72   1   14 SI    4.95571000000E-01 -3.48577000000E-01  2.17300000000E-02

  73  73   1   14 SI    2.21420000000E-02 -2.39347000000E-01  1.79285000000E-01

  74  74   1   14 SI    2.83273000000E-01 -4.64237000000E-01  1.62971000000E-01

  75  75   1   14 SI    1.99963000000E-01 -3.16702000000E-01  2.23572000000E-01

  76  76   1   14 SI    4.50213000000E-01 -6.47220000000E-02  2.19643000000E-01

  77  77   1   14 SI   -3.88669000000E-01  4.32032000000E-01  6.93010000000E-02

  78  78   1   14 SI   -9.39200000000E-03  1.03112000000E-01  8.35160000000E-02

  79  79   1   14 SI   -4.54926000000E-01  2.79366000000E-01  1.57250000000E-01

  80  80   1   14 SI   -1.81134000000E-01  3.42550000000E-02  1.56062000000E-01

  81  81   1   14 SI   -2.97491000000E-01  1.77980000000E-01  2.15010000000E-01

  82  82   1   14 SI   -4.91470000000E-02  4.26647000000E-01  2.11733000000E-01

  83  83   1   14 SI   -3.06128000000E-01 -7.61680000000E-02  7.76920000000E-02

  84  84   1   14 SI   -1.02641000000E-01 -3.34398000000E-01  5.73720000000E-02

  85  85   1   14 SI   -3.76767000000E-01 -1.45854000000E-01  1.68315000000E-01

  86  86   1   14 SI   -1.29867000000E-01 -3.96522000000E-01  1.59996000000E-01

  87  87   1   14 SI   -2.92179000000E-01 -3.09773000000E-01  2.19360000000E-01

  88  88   1   14 SI   -6.21470000000E-02 -7.03530000000E-02  2.27017000000E-01

  89  89   1   14 SI    7.51860000000E-02  5.99620000000E-02  2.78391000000E-01

  90  90   1   14 SI    3.14159000000E-01  3.12659000000E-01  2.83149000000E-01

  91  91   1   14 SI    6.59590000000E-02 -4.46649000000E-01  2.80532000000E-01

  92  92   1   14 SI    3.20660000000E-01 -1.84766000000E-01  2.82418000000E-01

  93  93   1   14 SI   -4.23686000000E-01  5.90810000000E-02  2.81243000000E-01

  94  94   1   14 SI   -1.81406000000E-01  3.11514000000E-01  2.78122000000E-01

  95  95   1   14 SI   -4.27567000000E-01 -4.42621000000E-01  2.71341000000E-01

  96  96   1   14 SI   -1.80334000000E-01 -1.95871000000E-01  2.91672000000E-01

  97  97   1   14 SI   -3.17787000000E-01 -3.80972000000E-01 -4.89660000000E-02

  98  98   1   14 SI    1.84293000000E-01 -3.29580000000E-01  9.91200000000E-03

  99  99   1   14 SI    4.12822000000E-01 -1.22007000000E-01 -1.92870000000E-02

 100 100   1   14 SI    1.88132000000E-01  4.34246000000E-01  3.47101000000E-01

 101 101   1   14 SI    4.44069000000E-01  1.83879000000E-01  3.38624000000E-01

 102 102   1   14 SI    5.79660000000E-02  3.06347000000E-01  4.06828000000E-01

 103 103   1   14 SI    3.18939000000E-01  6.69890000000E-02  4.02583000000E-01

 104 104   1   14 SI    1.82858000000E-01  1.78582000000E-01  4.64826000000E-01

 105 105   1   14 SI    4.26656000000E-01  4.24369000000E-01  4.55718000000E-01

 106 106   1   14 SI    1.90168000000E-01 -6.42110000000E-02  3.45012000000E-01

 107 107   1   14 SI    4.54518000000E-01 -3.15621000000E-01  3.35666000000E-01

 108 108   1   14 SI    6.49600000000E-02 -1.91949000000E-01  4.08081000000E-01

 109 109   1   14 SI    3.23465000000E-01 -4.27698000000E-01  3.97866000000E-01

 110 110   1   14 SI    2.20136000000E-01 -2.93360000000E-01  4.62178000000E-01

 111 111   1   14 SI    4.17856000000E-01 -7.62660000000E-02  4.61498000000E-01

 112 112   1   14 SI   -3.08173000000E-01  4.40526000000E-01  3.39407000000E-01

 113 113   1   14 SI   -5.58930000000E-02  1.81599000000E-01  3.40176000000E-01

 114 114   1   14 SI   -4.33116000000E-01  3.09295000000E-01  3.98257000000E-01

 115 115   1   14 SI   -1.77058000000E-01  5.56190000000E-02  4.07691000000E-01

 116 116   1   14 SI   -2.75585000000E-01  2.18321000000E-01  4.56581000000E-01

 117 117   1   14 SI   -1.17964000000E-01  3.76515000000E-01  4.61164000000E-01

 118 118   1   14 SI   -3.09820000000E-01 -6.73640000000E-02  3.49459000000E-01

 119 119   1   14 SI   -5.43480000000E-02 -3.26777000000E-01  3.49096000000E-01

 120 120   1   14 SI   -4.38333000000E-01 -1.96531000000E-01  4.08617000000E-01

 121 121   1   14 SI   -1.85820000000E-01 -4.46219000000E-01  4.10268000000E-01

 122 122   1   14 SI   -3.09097000000E-01 -3.18169000000E-01  4.72972000000E-01

 123 123   1   14 SI   -6.12180000000E-02 -7.21370000000E-02  4.74121000000E-01

 124 124   1   14 SI    7.59840000000E-02  4.85470000000E-02 -4.69723000000E-01

 125 125   1   14 SI    2.78474000000E-01  3.33811000000E-01 -4.81369000000E-01

 126 126   1   14 SI    2.21971000000E-01 -4.20912000000E-01 -4.52395000000E-01

 127 127   1   14 SI    2.98801000000E-01 -1.56565000000E-01 -4.61463000000E-01

 128 128   1   14 SI   -4.43725000000E-01  1.61960000000E-02 -4.19556000000E-01

 129 129   1   14 SI   -2.72233000000E-01  3.46283000000E-01 -4.34105000000E-01

 130 130   1   14 SI   -3.80440000000E-01 -4.37571000000E-01 -4.46862000000E-01

 131 131   1   14 SI   -2.19559000000E-01 -1.65859000000E-01 -4.64943000000E-01

 132 132   1   14 SI    3.45384000000E-01  2.54739000000E-01 -3.52627000000E-01

 133 133   1   14 SI    1.43177000000E-01 -2.83115000000E-01 -3.39929000000E-01

 134 134   1   14 SI   -4.66203000000E-01  4.50542000000E-01 -3.21989000000E-01

 135 135   1   14 SI   -9.86840000000E-02  2.24858000000E-01 -3.74898000000E-01

 136 136   1   14 SI   -4.42131000000E-01 -2.39173000000E-01 -3.57474000000E-01

 137 137   1   14 SI   -1.77718000000E-01 -2.56804000000E-01 -3.22721000000E-01

 138 138   1   14 SI    2.71938000000E-01  1.64399000000E-01 -9.84210000000E-02

 139 139   1   14 SI    3.60994000000E-01 -4.50060000000E-02 -1.86518000000E-01

 140 140   1   14 SI   -2.35060000000E-01  5.62000000000E-02 -2.33986000000E-01

 141 141   1   14 SI   -3.84700000000E-03 -5.98230000000E-02 -2.89632000000E-01

 142 142   1   14 SI    1.39264000000E-01 -4.10756000000E-01 -1.27288000000E-01

 143 143   1   14 SI   -2.15264000000E-01 -2.18642000000E-01 -2.20615000000E-01

 144 144   1   14 SI   -4.85441000000E-01 -2.41667000000E-01 -1.29926000000E-01

 145 145   1   14 SI   -1.87611000000E-01  1.57978000000E-01 -1.04795000000E-01

 146 146   1   14 SI    3.83406000000E-01  3.92814000000E-01 -2.76390000000E-02

 147 147   1   14 SI    5.78880000000E-02  3.42939000000E-01 -1.51087000000E-01

 148 148   1   14 SI    9.06820000000E-02 -1.56534000000E-01 -1.65579000000E-01

 149 149   1   14 SI   -4.68333000000E-01  1.44317000000E-01 -2.98800000000E-02

 150 150   1   14 SI   -4.18391000000E-01  2.86472000000E-01 -2.24471000000E-01

 151 151   1   14 SI   -1.76989000000E-01  4.62494000000E-01 -2.80514000000E-01

 152 152   1   14 SI    2.68420000000E-01 -1.81310000000E-02 -3.14782000000E-01

 153 153   1   14 SI    4.24450000000E-02  5.61200000000E-03 -5.13700000000E-02

 154 154   1   14 SI    1.29477000000E-01  4.31214000000E-01 -2.83728000000E-01

 155 155   1   14 SI    4.10946000000E-01 -4.95253000000E-01 -1.59869000000E-01

 156 156   1   14 SI   -2.17730000000E-01  4.17318000000E-01 -1.46897000000E-01

 NUMBER OF SYMMETRY OPERATORS         :    1
 *******************************************************************************
 * GEOMETRY EDITING - INPUT COORDINATES ARE GIVEN IN ANGSTROM         
 *******************************************************************************

 GCALCO - MAX INDICES DIRECT LATTICE VECTOR    19    18     9
 NO.OF VECTORS CREATED 6999 STARS 1062 RMAX   306.73144 BOHR

 GEOMETRY FOR WAVE FUNCTION - DIMENSIONALITY OF THE SYSTEM    3
 (NON PERIODIC DIRECTION: LATTICE PARAMETER FORMALLY SET TO 500)
 *******************************************************************************
 LATTICE PARAMETERS (ANGSTROMS AND DEGREES) - BOHR = 0.5291772083 ANGSTROM
 PRIMITIVE CELL - CENTRING CODE 1/0 VOLUME=  2564.025280 - DENSITY  2.330 g/cm^3
         A              B              C           ALPHA      BETA       GAMMA 
    10.48610000    10.85380000    22.52820000    90.000000  90.000000  90.000000
 *******************************************************************************
 ATOMS IN THE ASYMMETRIC UNIT  156 - ATOMS IN THE UNIT CELL:  156
     ATOM              X/A                 Y/B                 Z/C    
 *******************************************************************************
   1 T   8 O     1.075160000000E-01 -9.850000000000E-03  8.320100000000E-02
   2 T   8 O     7.760400000000E-02 -4.288460000000E-01  4.850100000000E-02
   3 T   8 O    -4.091380000000E-01  4.258600000000E-02  7.018000000000E-02
   4 T   8 O    -4.538750000000E-01 -4.253740000000E-01  8.058200000000E-02
   5 T   8 O    -4.993740000000E-01 -1.960210000000E-01  3.084600000000E-02
   6 T   8 O    -4.693050000000E-01  3.914880000000E-01  6.527000000000E-03
   7 T   8 O    -1.954140000000E-01 -3.612390000000E-01 -1.216000000000E-03
   8 T   8 O     2.717390000000E-01 -9.782300000000E-02  3.886000000000E-03
   9 T   8 O     1.657910000000E-01  4.319570000000E-01 -4.582590000000E-01
  10 T   8 O     1.843260000000E-01 -4.888900000000E-02 -4.424390000000E-01
  11 T   8 O    -4.053310000000E-01  4.223540000000E-01 -4.752470000000E-01
  12 T   8 O    -3.204070000000E-01 -5.130400000000E-02 -4.532980000000E-01
  13 T   8 O    -1.298380000000E-01  3.912040000000E-01 -4.640290000000E-01
  14 T   8 O     4.858380000000E-01  2.986810000000E-01 -3.260530000000E-01
  15 T   8 O    -3.010070000000E-01  4.858630000000E-01 -3.910450000000E-01
  16 T   8 O    -4.714870000000E-01 -3.342270000000E-01 -4.103980000000E-01
  17 T   8 O     3.555010000000E-01  2.846260000000E-01 -4.226560000000E-01
  18 T   8 O    -3.045640000000E-01  2.106010000000E-01 -4.697470000000E-01
  19 T   8 O    -3.586000000000E-03  1.311740000000E-01 -4.167930000000E-01
  20 T   8 O     1.210230000000E-01 -3.470660000000E-01 -4.045070000000E-01
  21 T   8 O     5.732000000000E-03 -1.912270000000E-01 -3.328550000000E-01
  22 T   8 O    -2.132740000000E-01 -2.267940000000E-01 -3.942500000000E-01
  23 T   8 O    -4.821670000000E-01 -9.864300000000E-02 -3.667800000000E-01
  24 T   8 O     3.228660000000E-01  1.044580000000E-01 -3.498310000000E-01
  25 T   8 O     2.425800000000E-01 -1.373780000000E-01 -1.724170000000E-01
  26 T   8 O     2.361820000000E-01  3.432900000000E-01 -3.191340000000E-01
  27 T   8 O     1.784980000000E-01  2.776080000000E-01 -1.191270000000E-01
  28 T   8 O     1.573850000000E-01 -4.014290000000E-01 -2.933660000000E-01
  29 T   8 O     3.335600000000E-01  8.578000000000E-02 -1.527330000000E-01
  30 T   8 O    -3.378050000000E-01  1.582430000000E-01 -2.542780000000E-01
  31 T   8 O     1.663400000000E-01 -3.630210000000E-01 -6.099300000000E-02
  32 T   8 O    -1.724180000000E-01  9.815200000000E-02 -1.702520000000E-01
  33 T   8 O     4.324520000000E-01  4.635800000000E-01 -9.105500000000E-02
  34 T   8 O     2.565780000000E-01 -4.671480000000E-01 -1.667370000000E-01
  35 T   8 O     7.575000000000E-03 -1.143980000000E-01 -2.231390000000E-01
  36 T   8 O    -4.253100000000E-02 -1.969090000000E-01  5.524100000000E-02
  37 T   8 O     1.196610000000E-01  2.408200000000E-02 -3.039170000000E-01
  38 T   8 O    -1.619550000000E-01  4.819040000000E-01 -2.069550000000E-01
  39 T   8 O     4.783740000000E-01 -3.600370000000E-01 -1.710370000000E-01
  40 T   8 O    -2.834440000000E-01 -8.174900000000E-02 -2.186330000000E-01
  41 T   8 O     4.845110000000E-01  1.898000000000E-03 -4.391400000000E-02
  42 T   8 O     4.934800000000E-01 -1.143590000000E-01 -1.683350000000E-01
  43 T   8 O     4.153570000000E-01 -2.228640000000E-01 -7.457200000000E-02
  44 T   8 O    -8.057500000000E-02  1.019120000000E-01 -6.099400000000E-02
  45 T   8 O    -3.270420000000E-01  1.600110000000E-01 -6.935500000000E-02
  46 T   8 O    -1.493720000000E-01 -4.038430000000E-01 -3.111510000000E-01
  47 T   8 O     3.110800000000E-02 -7.982500000000E-02 -1.119040000000E-01
  48 T   8 O     1.763360000000E-01  8.735600000000E-02 -5.718100000000E-02
  49 T   8 O     3.372780000000E-01 -3.722560000000E-01  1.922000000000E-02
  50 T   8 O     3.534100000000E-02  4.780730000000E-01 -1.230780000000E-01
  51 T   8 O     8.944300000000E-02  3.421590000000E-01 -2.216810000000E-01
  52 T   8 O    -1.049790000000E-01  3.034910000000E-01 -1.256470000000E-01
  53 T   8 O    -1.269500000000E-01  3.414700000000E-02 -2.887500000000E-01
  54 T   8 O     3.608640000000E-01 -1.829200000000E-02 -2.569370000000E-01
  55 T   8 O     4.638770000000E-01  4.063940000000E-01 -2.090300000000E-01
  56 T   8 O    -3.707310000000E-01 -2.808370000000E-01 -2.995050000000E-01
  57 T   8 O    -7.258900000000E-02  3.692240000000E-01 -3.115410000000E-01
  58 T   8 O    -3.257300000000E-01  3.170960000000E-01 -1.651460000000E-01
  59 T   8 O     2.523920000000E-01 -1.697840000000E-01 -3.321690000000E-01
  60 T   8 O    -3.435330000000E-01 -2.703320000000E-01 -1.001540000000E-01
  61 T   8 O    -2.616030000000E-01 -4.987410000000E-01 -9.118300000000E-02
  62 T   8 O     6.639400000000E-02 -3.029810000000E-01 -1.632830000000E-01
  63 T   8 O    -3.305110000000E-01  4.040470000000E-01 -2.792040000000E-01
  64 T   8 O     4.033530000000E-01  2.238630000000E-01 -6.496400000000E-02
  65 T  14 SI    1.611340000000E-01  4.501620000000E-01  8.965600000000E-02
  66 T  14 SI    4.778950000000E-01  1.486020000000E-01  7.820300000000E-02
  67 T  14 SI    5.822500000000E-02  2.875470000000E-01  1.465940000000E-01
  68 T  14 SI    3.584580000000E-01  9.339200000000E-02  1.628310000000E-01
  69 T  14 SI    1.965190000000E-01  1.929080000000E-01  2.159490000000E-01
  70 T  14 SI    4.358070000000E-01  4.265850000000E-01  2.152930000000E-01
  71 T  14 SI    1.083400000000E-01 -1.206910000000E-01  2.911100000000E-02
  72 T  14 SI    4.955710000000E-01 -3.485770000000E-01  2.173000000000E-02
  73 T  14 SI    2.214200000000E-02 -2.393470000000E-01  1.792850000000E-01
  74 T  14 SI    2.832730000000E-01 -4.642370000000E-01  1.629710000000E-01
  75 T  14 SI    1.999630000000E-01 -3.167020000000E-01  2.235720000000E-01
  76 T  14 SI    4.502130000000E-01 -6.472200000000E-02  2.196430000000E-01
  77 T  14 SI   -3.886690000000E-01  4.320320000000E-01  6.930100000000E-02
  78 T  14 SI   -9.392000000000E-03  1.031120000000E-01  8.351600000000E-02
  79 T  14 SI   -4.549260000000E-01  2.793660000000E-01  1.572500000000E-01
  80 T  14 SI   -1.811340000000E-01  3.425500000000E-02  1.560620000000E-01
  81 T  14 SI   -2.974910000000E-01  1.779800000000E-01  2.150100000000E-01
  82 T  14 SI   -4.914700000000E-02  4.266470000000E-01  2.117330000000E-01
  83 T  14 SI   -3.061280000000E-01 -7.616800000000E-02  7.769200000000E-02
  84 T  14 SI   -1.026410000000E-01 -3.343980000000E-01  5.737200000000E-02
  85 T  14 SI   -3.767670000000E-01 -1.458540000000E-01  1.683150000000E-01
  86 T  14 SI   -1.298670000000E-01 -3.965220000000E-01  1.599960000000E-01
  87 T  14 SI   -2.921790000000E-01 -3.097730000000E-01  2.193600000000E-01
  88 T  14 SI   -6.214700000000E-02 -7.035300000000E-02  2.270170000000E-01
  89 T  14 SI    7.518600000000E-02  5.996200000000E-02  2.783910000000E-01
  90 T  14 SI    3.141590000000E-01  3.126590000000E-01  2.831490000000E-01
  91 T  14 SI    6.595900000000E-02 -4.466490000000E-01  2.805320000000E-01
  92 T  14 SI    3.206600000000E-01 -1.847660000000E-01  2.824180000000E-01
  93 T  14 SI   -4.236860000000E-01  5.908100000000E-02  2.812430000000E-01
  94 T  14 SI   -1.814060000000E-01  3.115140000000E-01  2.781220000000E-01
  95 T  14 SI   -4.275670000000E-01 -4.426210000000E-01  2.713410000000E-01
  96 T  14 SI   -1.803340000000E-01 -1.958710000000E-01  2.916720000000E-01
  97 T  14 SI   -3.177870000000E-01 -3.809720000000E-01 -4.896600000000E-02
  98 T  14 SI    1.842930000000E-01 -3.295800000000E-01  9.912000000000E-03
  99 T  14 SI    4.128220000000E-01 -1.220070000000E-01 -1.928700000000E-02
 100 T  14 SI    1.881320000000E-01  4.342460000000E-01  3.471010000000E-01
 101 T  14 SI    4.440690000000E-01  1.838790000000E-01  3.386240000000E-01
 102 T  14 SI    5.796600000000E-02  3.063470000000E-01  4.068280000000E-01
 103 T  14 SI    3.189390000000E-01  6.698900000000E-02  4.025830000000E-01
 104 T  14 SI    1.828580000000E-01  1.785820000000E-01  4.648260000000E-01
 105 T  14 SI    4.266560000000E-01  4.243690000000E-01  4.557180000000E-01
 106 T  14 SI    1.901680000000E-01 -6.421100000000E-02  3.450120000000E-01
 107 T  14 SI    4.545180000000E-01 -3.156210000000E-01  3.356660000000E-01
 108 T  14 SI    6.496000000000E-02 -1.919490000000E-01  4.080810000000E-01
 109 T  14 SI    3.234650000000E-01 -4.276980000000E-01  3.978660000000E-01
 110 T  14 SI    2.201360000000E-01 -2.933600000000E-01  4.621780000000E-01
 111 T  14 SI    4.178560000000E-01 -7.626600000000E-02  4.614980000000E-01
 112 T  14 SI   -3.081730000000E-01  4.405260000000E-01  3.394070000000E-01
 113 T  14 SI   -5.589300000000E-02  1.815990000000E-01  3.401760000000E-01
 114 T  14 SI   -4.331160000000E-01  3.092950000000E-01  3.982570000000E-01
 115 T  14 SI   -1.770580000000E-01  5.561900000000E-02  4.076910000000E-01
 116 T  14 SI   -2.755850000000E-01  2.183210000000E-01  4.565810000000E-01
 117 T  14 SI   -1.179640000000E-01  3.765150000000E-01  4.611640000000E-01
 118 T  14 SI   -3.098200000000E-01 -6.736400000000E-02  3.494590000000E-01
 119 T  14 SI   -5.434800000000E-02 -3.267770000000E-01  3.490960000000E-01
 120 T  14 SI   -4.383330000000E-01 -1.965310000000E-01  4.086170000000E-01
 121 T  14 SI   -1.858200000000E-01 -4.462190000000E-01  4.102680000000E-01
 122 T  14 SI   -3.090970000000E-01 -3.181690000000E-01  4.729720000000E-01
 123 T  14 SI   -6.121800000000E-02 -7.213700000000E-02  4.741210000000E-01
 124 T  14 SI    7.598400000000E-02  4.854700000000E-02 -4.697230000000E-01
 125 T  14 SI    2.784740000000E-01  3.338110000000E-01 -4.813690000000E-01
 126 T  14 SI    2.219710000000E-01 -4.209120000000E-01 -4.523950000000E-01
 127 T  14 SI    2.988010000000E-01 -1.565650000000E-01 -4.614630000000E-01
 128 T  14 SI   -4.437250000000E-01  1.619600000000E-02 -4.195560000000E-01
 129 T  14 SI   -2.722330000000E-01  3.462830000000E-01 -4.341050000000E-01
 130 T  14 SI   -3.804400000000E-01 -4.375710000000E-01 -4.468620000000E-01
 131 T  14 SI   -2.195590000000E-01 -1.658590000000E-01 -4.649430000000E-01
 132 T  14 SI    3.453840000000E-01  2.547390000000E-01 -3.526270000000E-01
 133 T  14 SI    1.431770000000E-01 -2.831150000000E-01 -3.399290000000E-01
 134 T  14 SI   -4.662030000000E-01  4.505420000000E-01 -3.219890000000E-01
 135 T  14 SI   -9.868400000000E-02  2.248580000000E-01 -3.748980000000E-01
 136 T  14 SI   -4.421310000000E-01 -2.391730000000E-01 -3.574740000000E-01
 137 T  14 SI   -1.777180000000E-01 -2.568040000000E-01 -3.227210000000E-01
 138 T  14 SI    2.719380000000E-01  1.643990000000E-01 -9.842100000000E-02
 139 T  14 SI    3.609940000000E-01 -4.500600000000E-02 -1.865180000000E-01
 140 T  14 SI   -2.350600000000E-01  5.620000000000E-02 -2.339860000000E-01
 141 T  14 SI   -3.847000000000E-03 -5.982300000000E-02 -2.896320000000E-01
 142 T  14 SI    1.392640000000E-01 -4.107560000000E-01 -1.272880000000E-01
 143 T  14 SI   -2.152640000000E-01 -2.186420000000E-01 -2.206150000000E-01
 144 T  14 SI   -4.854410000000E-01 -2.416670000000E-01 -1.299260000000E-01
 145 T  14 SI   -1.876110000000E-01  1.579780000000E-01 -1.047950000000E-01
 146 T  14 SI    3.834060000000E-01  3.928140000000E-01 -2.763900000000E-02
 147 T  14 SI    5.788800000000E-02  3.429390000000E-01 -1.510870000000E-01
 148 T  14 SI    9.068200000000E-02 -1.565340000000E-01 -1.655790000000E-01
 149 T  14 SI   -4.683330000000E-01  1.443170000000E-01 -2.988000000000E-02
 150 T  14 SI   -4.183910000000E-01  2.864720000000E-01 -2.244710000000E-01
 151 T  14 SI   -1.769890000000E-01  4.624940000000E-01 -2.805140000000E-01
 152 T  14 SI    2.684200000000E-01 -1.813100000000E-02 -3.147820000000E-01
 153 T  14 SI    4.244500000000E-02  5.612000000000E-03 -5.137000000000E-02
 154 T  14 SI    1.294770000000E-01  4.312140000000E-01 -2.837280000000E-01
 155 T  14 SI    4.109460000000E-01 -4.952530000000E-01 -1.598690000000E-01
 156 T  14 SI   -2.177300000000E-01  4.173180000000E-01 -1.468970000000E-01

 T = ATOM BELONGING TO THE ASYMMETRIC UNIT

 ****   1 SYMMOPS - TRANSLATORS IN FRACTIONAL UNITS
  V INV                   ROTATION MATRICES                       TRANSLATOR
  1  1  1.00  0.00  0.00  0.00  1.00  0.00  0.00  0.00  1.00    0.00  0.00  0.00

 DIRECT LATTICE VECTORS CARTESIAN COMPONENTS (ANGSTROM)
          X                    Y                    Z
   0.104861000000E+02   0.642088440027E-15   0.000000000000E+00
   0.000000000000E+00   0.108538000000E+02   0.000000000000E+00
   0.137945440103E-14   0.137945440103E-14   0.225282000000E+02


 CARTESIAN COORDINATES - PRIMITIVE CELL
 *******************************************************************************
 *      ATOM          X(ANGSTROM)         Y(ANGSTROM)         Z(ANGSTROM)
 *******************************************************************************
   1     8 O     1.127423527600E+00 -1.069099300000E-01  1.874368768200E+00
   2     8 O     8.137633044000E-01 -4.654608714800E+00  1.092640228200E+00
   3     8 O    -4.290261981800E+00  4.622199268000E-01  1.581029076000E+00
   4     8 O    -4.759378637500E+00 -4.616924321200E+00  1.815367412400E+00
   5     8 O    -5.236485701400E+00 -2.127572729800E+00  6.949048572000E-01
   6     8 O    -4.921179160500E+00  4.249132454400E+00  1.470415614000E-01
   7     8 O    -2.049130745400E+00 -3.920815858200E+00 -2.739429120000E-02
   8     8 O     2.849482327900E+00 -1.061751277400E+00  8.754458520000E-02
   9     8 O     1.738501005100E+00  4.688374886600E+00 -1.032375040380E+01
  10     8 O     1.932860868600E+00 -5.306314282000E-01 -9.967354279800E+00
  11     8 O    -4.250341399100E+00  4.584145845200E+00 -1.070645946540E+01
  12     8 O    -3.359819842700E+00 -5.568433552000E-01 -1.021198800360E+01
  13     8 O    -1.361494251800E+00  4.246049975200E+00 -1.045373811780E+01
  14     8 O     5.094545851800E+00  3.241823837800E+00 -7.345387194600E+00
  15     8 O    -3.156389502700E+00  5.273459829400E+00 -8.809539969000E+00
  16     8 O    -4.944059830700E+00 -3.627633012600E+00 -9.245528223600E+00
  17     8 O     3.727819036100E+00  3.089273678800E+00 -9.521678899200E+00
  18     8 O    -3.193688560400E+00  2.285821133800E+00 -1.058255436540E+01
  19     8 O    -3.760315460000E-02  1.423736361200E+00 -9.389596062600E+00
  20     8 O     1.269059280300E+00 -3.766984950800E+00 -9.112814597400E+00
  21     8 O     6.010632520000E-02 -2.075539612600E+00 -7.498624011000E+00
  22     8 O    -2.236412491400E+00 -2.461576717200E+00 -8.881742850000E+00
  23     8 O    -5.056051378700E+00 -1.070651393400E+00 -8.262893196000E+00
  24     8 O     3.385605162600E+00  1.133766240400E+00 -7.881062734200E+00
  25     8 O     2.543718138000E+00 -1.491073336400E+00 -3.884244659400E+00
  26     8 O     2.476628070200E+00  3.726001002000E+00 -7.189514578800E+00
  27     8 O     1.871747877800E+00  3.013101710400E+00 -2.683716881400E+00
  28     8 O     1.650354848500E+00 -4.357030080200E+00 -6.609007921200E+00
  29     8 O     3.497743516000E+00  9.310389640000E-01 -3.440799570600E+00
  30     8 O    -3.542257010500E+00  1.717537873400E+00 -5.728425639600E+00
  31     8 O     1.744257874000E+00 -3.940157329800E+00 -1.374062502600E+00
  32     8 O    -1.807992389800E+00  1.065322177600E+00 -3.835471106400E+00
  33     8 O     4.534734917200E+00  5.031604604000E+00 -2.051305251000E+00
  34     8 O     2.690502565800E+00 -5.070330962400E+00 -3.756284483400E+00
  35     8 O     7.943220750000E-02 -1.241653012400E+00 -5.026920019800E+00
  36     8 O    -4.459843191000E-01 -2.137210904200E+00  1.244480296200E+00
  37     8 O     1.254777212100E+00  2.613812116000E-01 -6.846702959400E+00
  38     8 O    -1.698276325500E+00  5.230489635200E+00 -4.662323631000E+00
  39     8 O     5.016277601400E+00 -3.907769590600E+00 -3.853155743400E+00
  40     8 O    -2.972222128400E+00 -8.872872962000E-01 -4.925407950600E+00
  41     8 O     5.080630797100E+00  2.060051240000E-02 -9.893033748000E-01
  42     8 O     5.174680628000E+00 -1.241229714200E+00 -3.792284547000E+00
  43     8 O     4.355475037700E+00 -2.418921283200E+00 -1.679972930400E+00
  44     8 O    -8.449175075000E-01  1.106132465600E+00 -1.374085030800E+00
  45     8 O    -3.429395116200E+00  1.736727391800E+00 -1.562443311000E+00
  46     8 O    -1.566329729200E+00 -4.383231153400E+00 -7.009671958200E+00
  47     8 O     3.262015988000E-01 -8.664045850000E-01 -2.520995692800E+00
  48     8 O     1.849076929600E+00  9.481445528000E-01 -1.288185004200E+00
  49     8 O     3.536730835800E+00 -4.040392172800E+00  4.329920040000E-01
  50     8 O     3.705892601000E-01  5.188908727400E+00 -2.772725799600E+00
  51     8 O     9.379082423000E-01  3.713725354200E+00 -4.994073904200E+00
  52     8 O    -1.100820291900E+00  3.294030615800E+00 -2.830600745400E+00
  53     8 O    -1.331210395000E+00  3.706247086000E-01 -6.505017750000E+00
  54     8 O     3.784055990400E+00 -1.985377096000E-01 -5.788328123400E+00
  55     8 O     4.864260609700E+00  4.410919197200E+00 -4.709069646000E+00
  56     8 O    -3.887522339100E+00 -3.048148630600E+00 -6.747308541000E+00
  57     8 O    -7.611755129000E-01  4.007483451200E+00 -7.018457956200E+00
  58     8 O    -3.415637353000E+00  3.441696564800E+00 -3.720442117200E+00
  59     8 O     2.646607751200E+00 -1.842801579200E+00 -7.483169665800E+00
  60     8 O    -3.602321391300E+00 -2.934129461600E+00 -2.256289342800E+00
  61     8 O    -2.743195218300E+00 -5.413235065800E+00 -2.054188860600E+00
  62     8 O     6.962141234000E-01 -3.288495177800E+00 -3.678472080600E+00
  63     8 O    -3.465771397100E+00  4.385445328600E+00 -6.289963552800E+00
  64     8 O     4.229599893300E+00  2.429764229400E+00 -1.463521984800E+00
  65    14 SI    1.689667237400E+00  4.885968315600E+00  2.019788299200E+00
  66    14 SI    5.011254759500E+00  1.612896387600E+00  1.761772824600E+00
  67    14 SI    6.105531725000E-01  3.120977628600E+00  3.302498950800E+00
  68    14 SI    3.758826433800E+00  1.013658089600E+00  3.668289334200E+00
  69    14 SI    2.060717885900E+00  2.093784850400E+00  4.864942261800E+00
  70    14 SI    4.569915782700E+00  4.630068273000E+00  4.850163762600E+00
  71    14 SI    1.136064074000E+00 -1.309955975800E+00  6.558184302000E-01
  72    14 SI    5.196607063100E+00 -3.783385042600E+00  4.895377860000E-01
  73    14 SI    2.321832262000E-01 -2.597824468600E+00  4.038968337000E+00
  74    14 SI    2.970429005300E+00 -5.038735550600E+00  3.671443282200E+00
  75    14 SI    2.096832014300E+00 -3.437420167600E+00  5.036674730400E+00
  76    14 SI    4.720978539300E+00 -7.024796436000E-01  4.948161432600E+00
  77    14 SI   -4.075622000900E+00  4.689188921600E+00  1.561226788200E+00
  78    14 SI   -9.848545120000E-02  1.119157025600E+00  1.881465151200E+00
  79    14 SI   -4.770399528600E+00  3.032182690800E+00  3.542559450000E+00
  80    14 SI   -1.899389237400E+00  3.717969190000E-01  3.515795948400E+00
  81    14 SI   -3.119520375100E+00  1.931759324000E+00  4.843788282000E+00
  82    14 SI   -5.153603567000E-01  4.630741208600E+00  4.769963370600E+00
  83    14 SI   -3.210088820800E+00 -8.267122384000E-01  1.750260914400E+00
  84    14 SI   -1.076303790100E+00 -3.629489012400E+00  1.292487890400E+00
  85    14 SI   -3.950816438700E+00 -1.583070145200E+00  3.791833983000E+00
  86    14 SI   -1.361798348700E+00 -4.303770483600E+00  3.604421887200E+00
  87    14 SI   -3.063818211900E+00 -3.362214187400E+00  4.941785952000E+00
  88    14 SI   -6.516796567000E-01 -7.635973914000E-01  5.114284379400E+00
  89    14 SI    7.884079146000E-01  6.508155556000E-01  6.271648126200E+00
  90    14 SI    3.294302689900E+00  3.393538254200E+00  6.378837301800E+00
  91    14 SI    6.916526699000E-01 -4.847838916200E+00  6.319881002400E+00
  92    14 SI    3.362472826000E+00 -2.005413210800E+00  6.362369187600E+00
  93    14 SI   -4.442813764600E+00  6.412533578000E-01  6.335898552600E+00
  94    14 SI   -1.902241456600E+00  3.381110653200E+00  6.265588040400E+00
  95    14 SI   -4.483510318700E+00 -4.804119809800E+00  6.112824316200E+00
  96    14 SI   -1.891000357400E+00 -2.125944659800E+00  6.570845150400E+00
  97    14 SI   -3.332346260700E+00 -4.134993893600E+00 -1.103115841200E+00
  98    14 SI    1.932514827300E+00 -3.577195404000E+00  2.232995184000E-01
  99    14 SI    4.328892774200E+00 -1.324239576600E+00 -4.345013934000E-01
 100    14 SI    1.972770965200E+00  4.713219234800E+00  7.819560748200E+00
 101    14 SI    4.656551940900E+00  1.995785890200E+00  7.628589196800E+00
 102    14 SI    6.078372726000E-01  3.325029068600E+00  9.165102549600E+00
 103    14 SI    3.344426247900E+00  7.270852082000E-01  9.069470340600E+00
 104    14 SI    1.917467273800E+00  1.938293311600E+00  1.047169309320E+01
 105    14 SI    4.473957481600E+00  4.606016252200E+00  1.026650624760E+01
 106    14 SI    1.994120664800E+00 -6.969333518000E-01  7.772499338400E+00
 107    14 SI    4.766121199800E+00 -3.425687209800E+00  7.561950781200E+00
 108    14 SI    6.811770560000E-01 -2.083376056200E+00  9.193330384200E+00
 109    14 SI    3.391886336500E+00 -4.642148552400E+00  8.963204821200E+00
 110    14 SI    2.308368109600E+00 -3.184070768000E+00  1.041203841960E+01
 111    14 SI    4.381679801600E+00 -8.277759108000E-01  1.039671924360E+01
 112    14 SI   -3.231532895300E+00  4.781381098800E+00  7.646228777400E+00
 113    14 SI   -5.860995873000E-01  1.971039226200E+00  7.663552963200E+00
 114    14 SI   -4.541697687600E+00  3.357026071000E+00  8.972013347400E+00
 115    14 SI   -1.856647893800E+00  6.036775022000E-01  9.184544386200E+00
 116    14 SI   -2.889811868500E+00  2.369612469800E+00  1.028594808420E+01
 117    14 SI   -1.236982300400E+00  4.086618507000E+00  1.038919482480E+01
 118    14 SI   -3.248803502000E+00 -7.311553832000E-01  7.872682243800E+00
 119    14 SI   -5.698985628000E-01 -3.546772202600E+00  7.864504507200E+00
 120    14 SI   -4.596403671300E+00 -2.133108167800E+00  9.205405499400E+00
 121    14 SI   -1.948527102000E+00 -4.843171782200E+00  9.242599557600E+00
 122    14 SI   -3.241222051700E+00 -3.453342692200E+00  1.065520781040E+01
 123    14 SI   -6.419380698000E-01 -7.829605706000E-01  1.068109271220E+01
 124    14 SI    7.967758224000E-01  5.269194286000E-01 -1.058201368860E+01
 125    14 SI    2.920106211400E+00  3.623117831800E+00 -1.084437710580E+01
 126    14 SI    2.327610103100E+00 -4.568494665600E+00 -1.019164503900E+01
 127    14 SI    3.133257166100E+00 -1.699325197000E+00 -1.039593075660E+01
 128    14 SI   -4.652944722500E+00  1.757881448000E-01 -9.451841479200E+00
 129    14 SI   -2.854662461300E+00  3.758486425400E+00 -9.779604261000E+00
 130    14 SI   -3.989331884000E+00 -4.749308119800E+00 -1.006699650840E+01
 131    14 SI   -2.302317629900E+00 -1.800200414200E+00 -1.047432889260E+01
 132    14 SI    3.621731162400E+00  2.764886158200E+00 -7.944051581400E+00
 133    14 SI    1.501368339700E+00 -3.072873587000E+00 -7.657988497800E+00
 134    14 SI   -4.888651278300E+00  4.890092759600E+00 -7.253832589800E+00
 135    14 SI   -1.034810292400E+00  2.440563760400E+00 -8.445777123600E+00
 136    14 SI   -4.636229879100E+00 -2.595935907400E+00 -8.053245766800E+00
 137    14 SI   -1.863568719800E+00 -2.787299255200E+00 -7.270323232200E+00
 138    14 SI    2.851569061800E+00  1.784353866200E+00 -2.217247972200E+00
 139    14 SI    3.785419183400E+00 -4.884861228000E-01 -4.201914807600E+00
 140    14 SI   -2.464862666000E+00  6.099835600000E-01 -5.271283405200E+00
 141    14 SI   -4.034002670000E-02 -6.493068774000E-01 -6.524887622400E+00
 142    14 SI    1.460336230400E+00 -4.458263472800E+00 -2.867569521600E+00
 143    14 SI   -2.257279830400E+00 -2.373096539600E+00 -4.970058843000E+00
 144    14 SI   -5.090382870100E+00 -2.623005284600E+00 -2.926998913200E+00
 145    14 SI   -1.967307707100E+00  1.714661616400E+00 -2.360842719000E+00
 146    14 SI    4.020433656600E+00  4.263524593200E+00 -6.226569198000E-01
 147    14 SI    6.070193568000E-01  3.722191318200E+00 -3.403718153400E+00
 148    14 SI    9.509005202000E-01 -1.698988729200E+00 -3.730196827800E+00
 149    14 SI   -4.910986671300E+00  1.566387854600E+00 -6.731426160000E-01
 150    14 SI   -4.387289865100E+00  3.109309793600E+00 -5.056927582200E+00
 151    14 SI   -1.855924352900E+00  5.019817377200E+00 -6.319475494800E+00
 152    14 SI    2.814678962000E+00 -1.967902478000E-01 -7.091471852400E+00
 153    14 SI    4.450825145000E-01  6.091152560000E-02 -1.157273634000E+00
 154    14 SI    1.357708769700E+00  4.680310513200E+00 -6.391881129600E+00
 155    14 SI    4.309220850600E+00 -5.375377011400E+00 -3.601560805800E+00
 156    14 SI   -2.283138553000E+00  4.529486108400E+00 -3.309324995400E+00

 *******************************************************************************
 LOCAL ATOMIC FUNCTIONS BASIS SET
 *******************************************************************************
   ATOM  X(AU)  Y(AU)  Z(AU)    NO. TYPE  EXPONENT  S COEF   P COEF   D/F/G COEF
 *******************************************************************************
   1 O   2.131 -0.202  3.542
                                  1 S  
                                         8.020E+03 1.080E-03 0.000E+00 0.000E+00
                                         1.338E+03 8.040E-03 0.000E+00 0.000E+00
                                         2.554E+02 5.324E-02 0.000E+00 0.000E+00
                                         6.922E+01 1.681E-01 0.000E+00 0.000E+00
                                         2.390E+01 3.581E-01 0.000E+00 0.000E+00
                                         9.264E+00 3.855E-01 0.000E+00 0.000E+00
                                         3.851E+00 1.468E-01 0.000E+00 0.000E+00
                                         1.212E+00 7.280E-02 0.000E+00 0.000E+00
                             2-   5 SP 
                                         4.943E+01-8.830E-03 9.580E-03 0.000E+00
                                         1.047E+01-9.150E-02 6.960E-02 0.000E+00
                                         3.235E+00-4.020E-02 2.065E-01 0.000E+00
                                         1.217E+00 3.790E-01 3.470E-01 0.000E+00
                             6-   9 SP 
                                         4.763E-01 1.000E+00 1.000E+00 0.000E+00
                            10-  13 SP 
                                         1.900E-01 1.000E+00 1.000E+00 0.000E+00
   2 O   1.538 -8.796  2.065
   3 O  -8.107  0.873  2.988
   4 O  -8.994 -8.725  3.431
   5 O  -9.896 -4.021  1.313
   6 O  -9.300  8.030  0.278
   7 O  -3.872 -7.409 -0.052
   8 O   5.385 -2.006  0.165
   9 O   3.285  8.860-19.509
  10 O   3.653 -1.003-18.836
  11 O  -8.032  8.663-20.232
  12 O  -6.349 -1.052-19.298
  13 O  -2.573  8.024-19.755
  14 O   9.627  6.126-13.881
  15 O  -5.965  9.965-16.648
  16 O  -9.343 -6.855-17.472
  17 O   7.045  5.838-17.993
  18 O  -6.035  4.320-19.998
  19 O  -0.071  2.690-17.744
  20 O   2.398 -7.119-17.221
  21 O   0.114 -3.922-14.170
  22 O  -4.226 -4.652-16.784
  23 O  -9.555 -2.023-15.615
  24 O   6.398  2.143-14.893
  25 O   4.807 -2.818 -7.340
  26 O   4.680  7.041-13.586
  27 O   3.537  5.694 -5.071
  28 O   3.119 -8.234-12.489
  29 O   6.610  1.759 -6.502
  30 O  -6.694  3.246-10.825
  31 O   3.296 -7.446 -2.597
  32 O  -3.417  2.013 -7.248
  33 O   8.569  9.508 -3.876
  34 O   5.084 -9.582 -7.098
  35 O   0.150 -2.346 -9.500
  36 O  -0.843 -4.039  2.352
  37 O   2.371  0.494-12.938
  38 O  -3.209  9.884 -8.811
  39 O   9.479 -7.385 -7.281
  40 O  -5.617 -1.677 -9.308
  41 O   9.601  0.039 -1.870
  42 O   9.779 -2.346 -7.166
  43 O   8.231 -4.571 -3.175
  44 O  -1.597  2.090 -2.597
  45 O  -6.481  3.282 -2.953
  46 O  -2.960 -8.283-13.246
  47 O   0.616 -1.637 -4.764
  48 O   3.494  1.792 -2.434
  49 O   6.683 -7.635  0.818
  50 O   0.700  9.806 -5.240
  51 O   1.772  7.018 -9.437
  52 O  -2.080  6.225 -5.349
  53 O  -2.516  0.700-12.293
  54 O   7.151 -0.375-10.938
  55 O   9.192  8.335 -8.899
  56 O  -7.346 -5.760-12.751
  57 O  -1.438  7.573-13.263
  58 O  -6.455  6.504 -7.031
  59 O   5.001 -3.482-14.141
  60 O  -6.807 -5.545 -4.264
  61 O  -5.184-10.230 -3.882
  62 O   1.316 -6.214 -6.951
  63 O  -6.549  8.287-11.886
  64 O   7.993  4.592 -2.766
  65 SI  3.193  9.233  3.817
                                833 S  
                                         8.765E+04 2.370E-04 0.000E+00 0.000E+00
                                         1.285E+04 1.920E-03 0.000E+00 0.000E+00
                                         2.786E+03 1.090E-02 0.000E+00 0.000E+00
                                         7.280E+02 4.960E-02 0.000E+00 0.000E+00
                                         2.195E+02 1.668E-01 0.000E+00 0.000E+00
                                         7.590E+01 3.630E-01 0.000E+00 0.000E+00
                                         2.946E+01 4.051E-01 0.000E+00 0.000E+00
                                         1.199E+01 1.504E-01 0.000E+00 0.000E+00
                           834- 837 SP 
                                         1.660E+02-8.840E-03 9.090E-03 0.000E+00
                                         3.937E+01-8.590E-02 6.010E-02 0.000E+00
                                         1.271E+01-7.120E-02 1.952E-01 0.000E+00
                                         4.718E+00 4.147E-01 3.384E-01 0.000E+00
                                         1.848E+00 6.168E-01 3.006E-01 0.000E+00
                                         7.365E-01 1.154E-01 6.480E-02 0.000E+00
                           838- 841 SP 
                                         4.175E+00-1.990E-02-8.700E-03 0.000E+00
                                         1.447E+00-1.864E-01-4.380E-03 0.000E+00
                                         5.023E-01 9.670E-02 2.207E-01 0.000E+00
                           842- 845 SP 
                                         3.220E-01 1.000E+00 1.000E+00 0.000E+00
                           846- 849 SP 
                                         1.300E-01 1.000E+00 1.000E+00 0.000E+00
                           850- 854 D  
                                         6.000E-01 0.000E+00 0.000E+00 1.000E+00
  66 SI  9.470  3.048  3.329
  67 SI  1.154  5.898  6.241
  68 SI  7.103  1.916  6.932
  69 SI  3.894  3.957  9.193
  70 SI  8.636  8.750  9.165
  71 SI  2.147 -2.475  1.239
  72 SI  9.820 -7.150  0.925
  73 SI  0.439 -4.909  7.633
  74 SI  5.613 -9.522  6.938
  75 SI  3.962 -6.496  9.518
  76 SI  8.921 -1.327  9.351
  77 SI -7.702  8.861  2.950
  78 SI -0.186  2.115  3.555
  79 SI -9.015  5.730  6.694
  80 SI -3.589  0.703  6.644
  81 SI -5.895  3.650  9.153
  82 SI -0.974  8.751  9.014
  83 SI -6.066 -1.562  3.308
  84 SI -2.034 -6.859  2.442
  85 SI -7.466 -2.992  7.166
  86 SI -2.573 -8.133  6.811
  87 SI -5.790 -6.354  9.339
  88 SI -1.231 -1.443  9.665
  89 SI  1.490  1.230 11.852
  90 SI  6.225  6.413 12.054
  91 SI  1.307 -9.161 11.943
  92 SI  6.354 -3.790 12.023
  93 SI -8.396  1.212 11.973
  94 SI -3.595  6.389 11.840
  95 SI -8.473 -9.078 11.552
  96 SI -3.573 -4.017 12.417
  97 SI -6.297 -7.814 -2.085
  98 SI  3.652 -6.760  0.422
  99 SI  8.180 -2.502 -0.821
 100 SI  3.728  8.907 14.777
 101 SI  8.800  3.771 14.416
 102 SI  1.149  6.283 17.320
 103 SI  6.320  1.374 17.139
 104 SI  3.623  3.663 19.789
 105 SI  8.455  8.704 19.401
 106 SI  3.768 -1.317 14.688
 107 SI  9.007 -6.474 14.290
 108 SI  1.287 -3.937 17.373
 109 SI  6.410 -8.772 16.938
 110 SI  4.362 -6.017 19.676
 111 SI  8.280 -1.564 19.647
 112 SI -6.107  9.036 14.449
 113 SI -1.108  3.725 14.482
 114 SI -8.583  6.344 16.955
 115 SI -3.509  1.141 17.356
 116 SI -5.461  4.478 19.438
 117 SI -2.338  7.723 19.633
 118 SI -6.139 -1.382 14.877
 119 SI -1.077 -6.702 14.862
 120 SI -8.686 -4.031 17.396
 121 SI -3.682 -9.152 17.466
 122 SI -6.125 -6.526 20.135
 123 SI -1.213 -1.480 20.184
 124 SI  1.506  0.996-19.997
 125 SI  5.518  6.847-20.493
 126 SI  4.399 -8.633-19.259
 127 SI  5.921 -3.211-19.645
 128 SI -8.793  0.332-17.861
 129 SI -5.395  7.103-18.481
 130 SI -7.539 -8.975-19.024
 131 SI -4.351 -3.402-19.794
 132 SI  6.844  5.225-15.012
 133 SI  2.837 -5.807-14.472
 134 SI -9.238  9.241-13.708
 135 SI -1.956  4.612-15.960
 136 SI -8.761 -4.906-15.218
 137 SI -3.522 -5.267-13.739
 138 SI  5.389  3.372 -4.190
 139 SI  7.153 -0.923 -7.940
 140 SI -4.658  1.153 -9.961
 141 SI -0.076 -1.227-12.330
 142 SI  2.760 -8.425 -5.419
 143 SI -4.266 -4.485 -9.392
 144 SI -9.619 -4.957 -5.531
 145 SI -3.718  3.240 -4.461
 146 SI  7.598  8.057 -1.177
 147 SI  1.147  7.034 -6.432
 148 SI  1.797 -3.211 -7.049
 149 SI -9.280  2.960 -1.272
 150 SI -8.291  5.876 -9.556
 151 SI -3.507  9.486-11.942
 152 SI  5.319 -0.372-13.401
 153 SI  0.841  0.115 -2.187
 154 SI  2.566  8.845-12.079
 155 SI  8.143-10.158 -6.806
 156 SI -4.315  8.559 -6.254
 INFORMATION **** TOLINTEG **** COULOMB AND EXCHANGE SERIES TOLERANCES MODIFIED
 INFORMATION **** READM2 **** FULL DIRECT SCF (MONO AND BIEL INT) SELECTED
 INFORMATION **** SMEAR **** FERMI SMEARING ACTIVE
 FERMI SMEARING - TEMPERATURE SMEARING OF FERMI SURFACE  0.1000E-12
 INFORMATION **** MAXCYCLE **** MAX NUMBER OF SCF CYCLES SET TO         250

 MODIFIED BROYDEN MIXING OF THE FOCK MATRIX
 WO PARAMETER(D.D. Johnson, PRB38, 12807,(1988)             1.0000E-04
 % OF FOCK/KS MATRICES MIXING WHEN BROYDEN METHOD IS ON            115
 NUMBER OF SCF ITERATIONS AFTER WHICH BROYDEN METHOD IS ACTIVE      40
 INFORMATION **** TOLDEE **** SCF TOL ON TOTAL ENERGY SET TO           7
 *******************************************************************************
 N. OF ATOMS PER CELL      156  COULOMB OVERLAP TOL         (T1) 10** -8
 NUMBER OF SHELLS          808  COULOMB PENETRATION TOL     (T2) 10** -8
 NUMBER OF AO             2856  EXCHANGE OVERLAP TOL        (T3) 10** -8
 N. OF ELECTRONS PER CELL 1800  EXCHANGE PSEUDO OVP (F(G))  (T4) 10** -8
 CORE ELECTRONS PER CELL  1048  EXCHANGE PSEUDO OVP (P(G))  (T5) 10**-16
 N. OF SYMMETRY OPERATORS    1  POLE ORDER IN MONO ZONE                4
 *******************************************************************************
 TYPE OF CALCULATION :  UNRESTRICTED OPEN SHELL
 KOHN-SHAM HAMILTONIAN

 (EXCHANGE)[CORRELATION] FUNCTIONAL:(BECKE)[LEE-YANG-PARR]

 NON-LOCAL WEIGHTING FACTOR (EXCHANGE) =           0.9000
 NON-LOCAL WEIGHTING FACTOR [CORRELATION] =        0.8100

 HYBRID EXCHANGE - PERCENTAGE OF FOCK EXCHANGE     5.0000

 SPIN POLARIZED DFT SELECTED

 CAPPA:IS1  2;IS2  2;IS3  2; K PTS MONK NET    8; SYMMOPS: K SPACE  2;G SPACE  1

 *******************************************************************************
 MAX NUMBER OF SCF CYCLES     250  CONVERGENCE ON DELTAP        10**-17
 WEIGHT OF F(I) IN F(I+1)      95% CONVERGENCE ON ENERGY        10**- 7
 SHRINK. FACT.(MONKH.)    2  2  2  NUMBER OF K POINTS IN THE IBZ      8
 SHRINKING FACTOR(GILAT NET)    2  NUMBER OF K POINTS(GILAT NET)      8
 *******************************************************************************
 *** K POINTS COORDINATES (OBLIQUE COORDINATES IN UNITS OF IS =  2)
   1-R(  0  0  0)   2-R(  1  0  0)   3-R(  0  1  0)   4-R(  1  1  0)
   5-R(  0  0  1)   6-R(  1  0  1)   7-R(  0  1  1)   8-R(  1  1  1)

 DIRECT LATTICE VECTORS COMPON. (A.U.)     RECIP. LATTICE VECTORS COMPON. (A.U.) 
        X            Y            Z              X            Y            Z
   19.8158572    0.0000000    0.0000000      0.3170787    0.0000000    0.0000000
    0.0000000   20.5107095    0.0000000      0.0000000    0.3063368    0.0000000
    0.0000000    0.0000000   42.5721283      0.0000000    0.0000000    0.1475892

 DISK SPACE FOR EIGENVECTORS (FTN 10)   65253888 REALS

 SYMMETRY ADAPTION OF THE BLOCH FUNCTIONS DISABLED
 TTTTTTTTTTTTTTTTTTTTTTTTTTTTTT gordsh1     TELAPSE        3.83 TCPU        0.56

 DIMENSIONS  P(G)= 6561008 F(G)= 1167453 P(G),F(G) (IRR) 3289156
 MAX G-VECTOR INDEX FOR 1- AND 2-ELECTRON INTEGRALS  45

 TTTTTTTTTTTTTTTTTTTTTTTTTTTTTT INPUT       TELAPSE        4.90 TCPU        1.62

 NEIGHBORS OF THE NON-EQUIVALENT ATOMS

 N = NUMBER OF NEIGHBORS AT DISTANCE R
    ATOM  N     R/ANG      R/AU   NEIGHBORS (ATOM LABELS AND CELL INDICES)
   1 O    1     1.7124     3.2359  71 SI   0 0 0
   1 O    1     1.7338     3.2765  78 SI   0 0 0
   1 O    1     2.6447     4.9978  36 O    0 0 0
   1 O    1     2.6589     5.0247   8 O    0 0 0
   1 O    1     3.1120     5.8808 153 SI   0 0 0
   1 O    1     3.3761     6.3799  68 SI   0 0 0

   2 O    1     1.7799     3.3636  98 SI   0 0 0
   2 O    1     1.8307     3.4595  65 SI   0-1 0
   2 O    1     2.1594     4.0807  84 SI   0 0 0
   2 O    1     2.7315     5.1617  31 O    0 0 0
   2 O    1     2.8191     5.3273  36 O    0 0 0
   2 O    1     2.8683     5.4202  49 O    0 0 0

   3 O    1     1.6613     3.1394  66 SI  -1 0 0
   3 O    1     1.6902     3.1940  83 SI   0 0 0
   3 O    1     2.5857     4.8862 149 SI   0 0 0
   3 O    1     2.8364     5.3601  41 O   -1 0 0
   3 O    1     2.8961     5.4729   5 O    0 0 0
   3 O    1     3.0309     5.7275  85 SI   0 0 0

   4 O    1     1.6534     3.1244  72 SI  -1 0 0
   4 O    1     1.7110     3.2333  77 SI   0-1 0
   4 O    1     2.6001     4.9135   6 O    0-1 0
   4 O    1     2.6532     5.0138  49 O   -1 0 0
   4 O    1     2.7713     5.2369   5 O    0 0 0
   4 O    1     3.2842     6.2063  97 SI   0 0 0

   5 O    1     1.6639     3.1444  99 SI  -1 0 0
   5 O    1     1.6693     3.1546  72 SI  -1 0 0
   5 O    1     2.5543     4.8269  43 O   -1 0 0
   5 O    1     2.5810     4.8773  49 O   -1 0 0
   5 O    1     2.6291     4.9683  83 SI   0 0 0
   5 O    1     2.6955     5.0937   8 O   -1 0 0

   6 O    1     1.7054     3.2228  77 SI   0 0 0
   6 O    1     1.7257     3.2611 146 SI  -1 0 0
   6 O    1     2.5507     4.8202  33 O   -1 0 0
   6 O    1     2.6001     4.9135   4 O    0 1 0
   6 O    1     2.7726     5.2394  64 O   -1 0 0
   6 O    1     2.8053     5.3013 149 SI   0 0 0

   7 O    1     1.6653     3.1470  84 SI   0 0 0
   7 O    1     1.6881     3.1901  97 SI   0 0 0
   7 O    1     2.6109     4.9339  61 O    0 0 0
   7 O    1     2.7146     5.1298  36 O    0 0 0
   7 O    1     2.8903     5.4619  60 O    0 0 0
   7 O    1     3.1606     5.9726   2 O    0 0 0

   8 O    1     1.5906     3.0058  99 SI   0 0 0
   8 O    1     1.8222     3.4434  71 SI   0 0 0
   8 O    1     2.6331     4.9758  48 O    0 0 0
   8 O    1     2.6589     5.0247   1 O    0 0 0
   8 O    1     2.6808     5.0660  98 SI   0 0 0
   8 O    1     2.6896     5.0826  43 O    0 0 0

   9 O    1     1.6739     3.1633 125 SI   0 0 0
   9 O    1     1.7072     3.2262 126 SI   0 1 0
   9 O    1     2.6754     5.0558  17 O    0 0 0
   9 O    1     2.7275     5.1542  20 O    0 1 0
   9 O    1     3.1341     5.9226  13 O    0 0 0
   9 O    1     3.2554     6.1518 104 SI   0 0-1

  10 O    1     1.6694     3.1547 124 SI   0 0 0
  10 O    1     1.7293     3.2679 127 SI   0 0 0
  10 O    1     2.8348     5.3570  19 O    0 0 0
  10 O    1     2.8987     5.4777  59 O    0 0 0
  10 O    1     3.0265     5.7193 152 SI   0 0 0
  10 O    1     3.0386     5.7422  24 O    0 0 0

  11 O    1     1.6699     3.1556 130 SI   0 1 0
  11 O    1     1.8678     3.5296 129 SI   0 0 0
  11 O    1     2.2957     4.3382  15 O    0 0 0
  11 O    1     2.3501     4.4411 105 SI  -1 0-1
  11 O    1     2.5326     4.7860  18 O    0 0 0
  11 O    1     2.9195     5.5171  13 O    0 0 0

  12 O    1     1.6532     3.1241 131 SI   0 0 0
  12 O    1     1.6694     3.1546 128 SI   0 0 0
  12 O    1     2.5806     4.8767  22 O    0 0 0
  12 O    1     2.6344     4.9783  23 O    0 0 0
  12 O    1     2.8715     5.4264  18 O    0 0 0
  12 O    1     3.1799     6.0091 123 SI   0 0-1

  13 O    1     1.6974     3.2076 117 SI   0 0-1
  13 O    1     1.7093     3.2301 129 SI   0 0 0
  13 O    1     2.6421     4.9928  15 O    0 0 0
  13 O    1     2.6863     5.0763  18 O    0 0 0
  13 O    1     2.7200     5.1401 135 SI   0 0 0
  13 O    1     2.9195     5.5171  11 O    0 0 0

  14 O    1     1.6598     3.1366 132 SI   0 0 0
  14 O    1     1.7257     3.2611 134 SI   1 0 0
  14 O    1     2.4760     4.6789  63 O    1 0 0
  14 O    1     2.5026     4.7293 150 SI   1 0 0
  14 O    1     2.5744     4.8649  17 O    0 0 0
  14 O    1     2.6669     5.0397  26 O    0 0 0

  15 O    1     1.7221     3.2543 130 SI   0 1 0
  15 O    1     1.8241     3.4470 129 SI   0 0 0
  15 O    1     2.2957     4.3382  11 O    0 0 0
  15 O    1     2.3596     4.4591 134 SI   0 0 0
  15 O    1     2.6421     4.9928  13 O    0 0 0
  15 O    1     2.6831     5.0703  16 O    0 1 0

  16 O    1     1.6065     3.0358 136 SI   0 0 0
  16 O    1     1.6866     3.1871 130 SI   0 0 0
  16 O    1     2.6831     5.0703  15 O    0-1 0
  16 O    1     2.7416     5.1808  23 O    0 0 0
  16 O    1     2.7737     5.2415  56 O    0 0 0
  16 O    1     2.9704     5.6133  22 O    0 0 0

  17 O    1     1.6141     3.0502 132 SI   0 0 0
  17 O    1     1.6392     3.0976 125 SI   0 0 0
  17 O    1     2.5744     4.8649  14 O    0 0 0
  17 O    1     2.5754     4.8668  24 O    0 0 0
  17 O    1     2.6754     5.0558   9 O    0 0 0
  17 O    1     2.7221     5.1440  26 O    0 0 0

  18 O    1     1.6894     3.1924 116 SI   0 0-1
  18 O    1     1.7113     3.2338 129 SI   0 0 0
  18 O    1     2.5326     4.7860  11 O    0 0 0
  18 O    1     2.6863     5.0763  13 O    0 0 0
  18 O    1     2.8036     5.2980 128 SI   0 0 0
  18 O    1     2.8715     5.4264  12 O    0 0 0

  19 O    1     1.7086     3.2287 135 SI   0 0 0
  19 O    1     1.7095     3.2305 124 SI   0 0 0
  19 O    1     2.8348     5.3570  10 O    0 0 0
  19 O    1     3.0802     5.8207  37 O    0 0 0
  19 O    1     3.2940     6.2248  13 O    0 0 0
  19 O    1     3.3322     6.2969  53 O    0 0 0

  20 O    1     1.6286     3.0776 133 SI   0 0 0
  20 O    1     1.7108     3.2329 126 SI   0 0 0
  20 O    1     2.6005     4.9142  28 O    0 0 0
  20 O    1     2.6321     4.9740  21 O    0 0 0
  20 O    1     2.7275     5.1542   9 O    0-1 0
  20 O    1     2.8733     5.4298  59 O    0 0 0

  21 O    1     1.7299     3.2689 141 SI   0 0 0
  21 O    1     1.7599     3.3258 133 SI   0 0 0
  21 O    1     2.0638     3.9000 137 SI   0 0 0
  21 O    1     2.5970     4.9076  59 O    0 0 0
  21 O    1     2.6087     4.9296  35 O    0 0 0
  21 O    1     2.6321     4.9740  20 O    0 0 0

  22 O    1     1.6858     3.1856 137 SI   0 0 0
  22 O    1     1.7257     3.2611 131 SI   0 0 0
  22 O    1     2.5424     4.8044 136 SI   0 0 0
  22 O    1     2.5806     4.8767  12 O    0 0 0
  22 O    1     2.7085     5.1183  21 O    0 0 0
  22 O    1     2.7615     5.2185  56 O    0 0 0

  23 O    1     1.5958     3.0157 136 SI   0 0 0
  23 O    1     1.7691     3.3431 128 SI   0 0 0
  23 O    1     2.6344     4.9783  12 O    0 0 0
  23 O    1     2.7416     5.1808  16 O    0 0 0
  23 O    1     2.7519     5.2003  56 O    0 0 0
  23 O    1     2.9919     5.6540  59 O   -1 0 0

  24 O    1     1.6492     3.1165 152 SI   0 0 0
  24 O    1     1.6493     3.1168 132 SI   0 0 0
  24 O    1     2.5126     4.7482  54 O    0 0 0
  24 O    1     2.5242     4.7700  37 O    0 0 0
  24 O    1     2.5754     4.8668  17 O    0 0 0
  24 O    1     2.7661     5.2272  14 O    0 0 0

  25 O    1     1.6137     3.0495 148 SI   0 0 0
  25 O    1     1.6272     3.0750 139 SI   0 0 0
  25 O    1     2.5858     4.8864  62 O    0 0 0
  25 O    1     2.6143     4.9403  54 O    0 0 0
  25 O    1     2.6407     4.9902  29 O    0 0 0
  25 O    1     2.6444     4.9972  42 O    0 0 0

  26 O    1     1.6730     3.1615 154 SI   0 0 0
  26 O    1     1.6746     3.1646 132 SI   0 0 0
  26 O    1     2.6669     5.0397  14 O    0 0 0
  26 O    1     2.6810     5.0664  51 O    0 0 0
  26 O    1     2.7221     5.1440  17 O    0 0 0
  26 O    1     2.8327     5.3530  24 O    0 0 0

  27 O    1     1.6189     3.0592 147 SI   0 0 0
  27 O    1     1.6393     3.0979 138 SI   0 0 0
  27 O    1     2.4924     4.7100  48 O    0 0 0
  27 O    1     2.5886     4.8917  51 O    0 0 0
  27 O    1     2.6449     4.9982  50 O    0 0 0
  27 O    1     2.7182     5.1367  64 O    0 0 0

  28 O    1     1.6648     3.1460 133 SI   0 0 0
  28 O    1     1.8526     3.5010 154 SI   0-1 0
  28 O    1     2.6005     4.9142  20 O    0 0 0
  28 O    1     2.8422     5.3710  59 O    0 0 0
  28 O    1     2.9198     5.5177  21 O    0 0 0
  28 O    1     2.9490     5.5729  26 O    0-1 0

  29 O    1     1.6257     3.0720 138 SI   0 0 0
  29 O    1     1.6362     3.0919 139 SI   0 0 0
  29 O    1     2.5868     4.8883  64 O    0 0 0
  29 O    1     2.6208     4.9527  54 O    0 0 0
  29 O    1     2.6407     4.9902  25 O    0 0 0
  29 O    1     2.7115     5.1240  48 O    0 0 0

  30 O    1     1.6113     3.0450 140 SI   0 0 0
  30 O    1     1.7613     3.3283 150 SI   0 0 0
  30 O    1     2.6488     5.0056  32 O    0 0 0
  30 O    1     2.6497     5.0072  58 O    0 0 0
  30 O    1     2.7030     5.1079  53 O    0 0 0
  30 O    1     2.7274     5.1541  63 O    0 0 0

  31 O    1     1.6061     3.0351 142 SI   0 0 0
  31 O    1     1.6489     3.1159  98 SI   0 0 0
  31 O    1     2.5472     4.8136  49 O    0 0 0
  31 O    1     2.6111     4.9343  50 O    0-1 0
  31 O    1     2.6141     4.9399  62 O    0 0 0
  31 O    1     2.7315     5.1617   2 O    0 0 0

  32 O    1     1.6191     3.0597 145 SI   0 0 0
  32 O    1     1.6433     3.1053 140 SI   0 0 0
  32 O    1     2.5211     4.7642  40 O    0 0 0
  32 O    1     2.5450     4.8093  52 O    0 0 0
  32 O    1     2.6434     4.9953  44 O    0 0 0
  32 O    1     2.6488     5.0056  30 O    0 0 0

  33 O    1     1.6290     3.0785 155 SI   0 1 0
  33 O    1     1.7016     3.2156 146 SI   0 0 0
  33 O    1     2.5507     4.8202   6 O    1 0 0
  33 O    1     2.6217     4.9543  34 O    0 1 0
  33 O    1     2.6727     5.0508  39 O    0 1 0
  33 O    1     2.6848     5.0735  64 O    0 0 0

  34 O    1     1.6364     3.0923 142 SI   0 0 0
  34 O    1     1.6545     3.1265 155 SI   0 0 0
  34 O    1     2.5890     4.8925  50 O    0-1 0
  34 O    1     2.6020     4.9170  39 O    0 0 0
  34 O    1     2.6217     4.9543  33 O    0-1 0
  34 O    1     2.6755     5.0559  62 O    0 0 0

  35 O    1     1.6153     3.0524 141 SI   0 0 0
  35 O    1     1.6279     3.0763 148 SI   0 0 0
  35 O    1     2.5275     4.7763  62 O    0 0 0
  35 O    1     2.5459     4.8110  47 O    0 0 0
  35 O    1     2.5968     4.9073 143 SI   0 0 0
  35 O    1     2.6027     4.9184  53 O    0 0 0

  36 O    1     1.6206     3.0626  84 SI   0 0 0
  36 O    1     1.8798     3.5524  71 SI   0 0 0
  36 O    1     2.6447     4.9978   1 O    0 0 0
  36 O    1     2.7146     5.1298   7 O    0 0 0
  36 O    1     2.8191     5.3273   2 O    0 0 0
  36 O    1     2.9123     5.5034  73 SI   0 0 0

  37 O    1     1.6156     3.0531 141 SI   0 0 0
  37 O    1     1.6441     3.1069 152 SI   0 0 0
  37 O    1     2.5242     4.7700  24 O    0 0 0
  37 O    1     2.6019     4.9169  59 O    0 0 0
  37 O    1     2.6107     4.9336  53 O    0 0 0
  37 O    1     2.6367     4.9826  35 O    0 0 0

  38 O    1     1.6322     3.0844 156 SI   0 0 0
  38 O    1     1.6779     3.1708 151 SI   0 0 0
  38 O    1     2.5470     4.8132  63 O    0 0 0
  38 O    1     2.6526     5.0127  58 O    0 0 0
  38 O    1     2.6581     5.0230  46 O    0 1 0
  38 O    1     2.7317     5.1621  52 O    0 0 0

  39 O    1     1.6286     3.0776 144 SI   1 0 0
  39 O    1     1.6484     3.1150 155 SI   0 0 0
  39 O    1     2.6020     4.9170  34 O    0 0 0
  39 O    1     2.6430     4.9946  60 O    1 0 0
  39 O    1     2.6719     5.0492  42 O    0 0 0
  39 O    1     2.6727     5.0508  33 O    0-1 0

  40 O    1     1.6183     3.0581 140 SI   0 0 0
  40 O    1     1.6495     3.1171 143 SI   0 0 0
  40 O    1     2.5211     4.7642  32 O    0 0 0
  40 O    1     2.6020     4.9171  53 O    0 0 0
  40 O    1     2.6232     4.9571  42 O   -1 0 0
  40 O    1     2.7848     5.2624  30 O    0 0 0

  41 O    1     1.6375     3.0945  99 SI   0 0 0
  41 O    1     1.6535     3.1246 149 SI   1 0 0
  41 O    1     2.5987     4.9108  64 O    0 0 0
  41 O    1     2.6371     4.9833  43 O    0 0 0
  41 O    1     2.6793     5.0631  45 O    1 0 0
  41 O    1     2.7035     5.1089   8 O    0 0 0

  42 O    1     1.6323     3.0846 139 SI   0 0 0
  42 O    1     1.6453     3.1091 144 SI   1 0 0
  42 O    1     2.5534     4.8253  43 O    0 0 0
  42 O    1     2.6232     4.9571  40 O    1 0 0
  42 O    1     2.6444     4.9972  25 O    0 0 0
  42 O    1     2.6467     5.0016  54 O    0 0 0

  43 O    1     1.6367     3.0929 144 SI   1 0 0
  43 O    1     1.6584     3.1339  99 SI   0 0 0
  43 O    1     2.5534     4.8253  42 O    0 0 0
  43 O    1     2.5543     4.8269   5 O    1 0 0
  43 O    1     2.6371     4.9833  41 O    0 0 0
  43 O    1     2.6438     4.9961  60 O    1 0 0

  44 O    1     1.6136     3.0493 145 SI   0 0 0
  44 O    1     1.6744     3.1641 153 SI   0 0 0
  44 O    1     2.5647     4.8466  47 O    0 0 0
  44 O    1     2.6408     4.9904  52 O    0 0 0
  44 O    1     2.6434     4.9953  32 O    0 0 0
  44 O    1     2.6670     5.0398  45 O    0 0 0

  45 O    1     1.6660     3.1483 145 SI   0 0 0
  45 O    1     1.7364     3.2813 149 SI   0 0 0
  45 O    1     2.6670     5.0398  44 O    0 0 0
  45 O    1     2.6793     5.0631  41 O   -1 0 0
  45 O    1     2.7503     5.1973  58 O    0 0 0
  45 O    1     2.8717     5.4266  32 O    0 0 0

  46 O    1     1.6325     3.0849 151 SI   0-1 0
  46 O    1     1.6442     3.1070 137 SI   0 0 0
  46 O    1     2.5914     4.8970  57 O    0-1 0
  46 O    1     2.6581     5.0230  38 O    0-1 0
  46 O    1     2.6834     5.0710  15 O    0-1 0
  46 O    1     2.6906     5.0845  56 O    0 0 0

  47 O    1     1.5955     3.0151 148 SI   0 0 0
  47 O    1     1.6534     3.1245 153 SI   0 0 0
  47 O    1     2.5459     4.8110  35 O    0 0 0
  47 O    1     2.5647     4.8466  44 O    0 0 0
  47 O    1     2.6705     5.0465  48 O    0 0 0
  47 O    1     2.6769     5.0587  25 O    0 0 0

  48 O    1     1.6023     3.0279 138 SI   0 0 0
  48 O    1     1.6660     3.1483 153 SI   0 0 0
  48 O    1     2.4924     4.7100  27 O    0 0 0
  48 O    1     2.6331     4.9758   8 O    0 0 0
  48 O    1     2.6705     5.0465  47 O    0 0 0
  48 O    1     2.7000     5.1022  44 O    0 0 0

  49 O    1     1.6806     3.1759  72 SI   0 0 0
[...]
   0.0057175   0.0091961  -0.0047236  -0.0017611   0.0023567   0.0015055
   0.0117493   0.0008502   0.0009106   0.0000732   0.0001094  -0.0002538
   0.0003469  -0.0094361  -0.0014777   0.0059491   0.0031418   0.0038421
  -0.0000723   0.0002009   0.0004367   0.0009645   0.0003245  -0.0191204
  -0.0003960  -0.0002738   0.0000622   0.0004500  -0.0001282   0.0002769
  -0.0000496   0.0000541   0.0005068   0.0002386   0.0000341   0.0001659
   0.0006637   0.0012850  -0.0048494  -0.0010940  -0.0079374   0.0006671
   0.0156507  -0.0001275   0.0139788  -0.0132172  -0.0025581   0.0000989
  -0.0004633   0.0006765   0.0034423  -0.0003632  -0.1239732  -0.0073245
  -0.0139256  -0.0068127  -0.0012171  -0.0113893   0.0017438   0.0000624
  -0.5558926   0.0618172  -0.0025756  -0.0023536  -0.0011909  -0.0060672
   0.0015235  -0.0132445   0.0005539  -0.0130364  -0.0022346  -0.0128344
  -0.0054799   0.0041429  -0.0074290   0.0149335  -0.0035606   0.0036234
  -0.0184337   0.0018488  -0.0025398  -0.0165091  -0.0031296  -0.0219819
   0.0007790  -0.0005571  -0.0002078  -0.0414837  -0.0031537  -0.0062148
  -0.0026106  -0.0063624  -0.0428088  -0.0003995  -0.0062953  -0.0028331
   0.0023824  -0.0010755  -0.0046478  -0.0028511  -0.0049914  -0.0000787
  -0.0029299  -0.0167615  -0.0074551  -0.0246047   0.0003257  -0.0102380
   0.0006882  -0.0070249  -0.0092901  -0.0252664  -0.0006028   0.0054492
  -0.0049872   0.0003575  -0.3956186  -0.0142563  -0.0022464   0.0237285
   0.0745709   0.0040751  -0.3673693   0.0013239   0.0004124   0.0039490
   0.0027050   0.0311956   0.0036300   0.0017582   0.0009535   0.0023863
   0.0014798  -0.0224927   0.0748147   0.0007645  -0.0120552   0.8560606
   0.0086654   0.0116088   0.0000608   0.6459149   0.0305544   0.0179637
 TTTTTTTTTTTTTTTTTTTTTTTTTTTTTT MOQGAD      TELAPSE    54730.28 TCPU    45052.88
 WARNING **** GENBUD **** COUL. BIPO BUFFER TOO SMALL - TO AVOID I/O SET BIPOSIZE =     1998325
 TTTTTTTTTTTTTTTTTTTTTTTTTTTTTT SHELLX      TELAPSE    54799.73 TCPU    45121.10
 TTTTTTTTTTTTTTTTTTTTTTTTTTTTTT MONMO3      TELAPSE    54809.13 TCPU    45130.49
 NUMERICALLY INTEGRATED DENSITY    900.0000923832    900.0000921134
 TTTTTTTTTTTTTTTTTTTTTTTTTTTTTT NUMDFT      TELAPSE    54817.63 TCPU    45138.48
 CYC 106 ETOT(AU) -3.144668542120E+04 DETOT -7.96E-07 tst  8.00E-09 PX  3.94E-04
 MODIFIED BROYDEN: MIX%= 115 W0=  1.000000000000E-04 W=  3.182515975614E+02
 TTTTTTTTTTTTTTTTTTTTTTTTTTTTTT FDIK        TELAPSE    55006.04 TCPU    45323.38

    ALPHA      ELECTRONS
 INSULATING STATE
 TOP OF VALENCE BANDS -    BAND    900; K    3; EIG -8.8388770E-02 AU
 TOP OF VALENCE BANDS -    BAND    900; K    1; EIG -8.9071717E-02 AU
 BOTTOM OF VIRTUAL BANDS - BAND    901; K    7; EIG -7.4982455E-02 AU
 BOTTOM OF VIRTUAL BANDS - BAND    901; K    1; EIG -7.4419200E-02 AU

    BETA       ELECTRONS
 INSULATING STATE
 TOP OF VALENCE BANDS -    BAND    900; K    3; EIG -8.6124441E-02 AU
 TOP OF VALENCE BANDS -    BAND    900; K    1; EIG -8.9071717E-02 AU
 BOTTOM OF VIRTUAL BANDS - BAND    901; K    8; EIG -7.4681429E-02 AU
 BOTTOM OF VIRTUAL BANDS - BAND    901; K    1; EIG -7.4419200E-02 AU
 TTTTTTTTTTTTTTTTTTTTTTTTTTTTTT PDIG        TELAPSE    55230.69 TCPU    45532.08
 CHARGE NORMALIZATION FACTOR   1.00000000
 TOTAL ATOMIC CHARGES:
   8.6389808   8.7798971   8.7129453   8.6022727   8.5936892   8.7687718
   8.6541253   8.6231065   8.5654289   8.6870089   8.7055460   8.6825688
   8.5126456   8.6920544   8.7594754   8.5395307   8.5743845   8.5464627
   8.7286935   8.6271944   8.7294759   8.7662644   8.6639835   8.6810129
   8.6498581   8.7272225   8.6482099   8.6523284   8.6082983   8.5868096
   8.6484483   8.5920757   8.7166102   8.6573238   8.6438664   8.6167069
   8.5585361   8.6156755   8.5630480   8.5794250   8.6959392   8.5487831
   8.6426434   8.6127385   8.6938432   8.5326056   8.6082667   8.5744381
   8.7130869   8.6028680   8.6091893   8.8352646   8.6093654   8.5607744
   8.7169527   8.5682082   8.7210217   8.7297022   8.7126948   8.5854527
   8.6355181   8.5380739   8.8994243   8.8216422  13.6549068  13.6061847
  14.0677095  13.8885938  14.0150750  13.9735203  13.2928906  13.1614986
  13.8861797  13.9931088  14.0425643  14.0380035  13.3372567  13.6209413
  14.1678871  14.1327232  13.9540517  13.9644980  13.5584933  13.0587097
  13.9011601  14.0642796  13.9915767  14.0072177  13.9810078  13.9888538
  14.0321332  13.9903456  14.0093527  13.9930782  13.9934716  14.0256605
  12.9645509  13.0796713  12.8698945  14.0135638  14.0013523  14.0271033
  14.0241200  14.1035253  13.8102627  13.9870946  13.9875122  14.0192267
  14.0491726  14.0534668  14.0619160  14.0339864  14.0212416  14.0227817
  14.0145988  13.6636064  13.6366860  13.9829044  13.9771056  13.9969751
  14.0221550  14.0541761  14.0516221  13.2592920  13.4236633  13.4742321
  13.6625354  13.1682776  13.2830225  13.0945268  13.2700818  12.6894237
  12.7089746  13.1304792  13.0458890  12.9230015  13.2368694  12.6669334
  12.8059178  12.8376193  12.9932787  12.8033204  13.3291167  12.9034692
  12.6630071  13.1659153  12.7453914  12.8072398  12.8806123  12.8753808
  12.6458716  12.6493421  13.0688972  12.7424853  12.7578996  12.6963676
 SUMMED SPIN DENSITY           0.00000000
 TOTAL ATOMIC SPINS  :
  -0.0084459  -0.0002487  -0.0011843   0.0005565   0.0000162  -0.0006594
  -0.0007007  -0.0005217   0.0000118  -0.0011613  -0.0010729  -0.0001095
   0.0057186   0.0092005  -0.0047224  -0.0017612   0.0023567   0.0015044
   0.0117511   0.0008476   0.0009116   0.0000731   0.0001083  -0.0002540
   0.0003462  -0.0094371  -0.0014761   0.0059454   0.0031433   0.0038556
  -0.0000722   0.0002015   0.0004383   0.0009655   0.0003245  -0.0191218
  -0.0003956  -0.0002735   0.0000624   0.0004490  -0.0001272   0.0002764
  -0.0000490   0.0000544   0.0005091   0.0002383   0.0000338   0.0001661
   0.0006655   0.0012842  -0.0048477  -0.0010942  -0.0079367   0.0006669
   0.0156653  -0.0001271   0.0139686  -0.0132094  -0.0025587   0.0000991
  -0.0004629   0.0006758   0.0034437  -0.0003631  -0.1242020  -0.0073208
  -0.0139315  -0.0068157  -0.0012185  -0.0113986   0.0017434   0.0000631
  -0.5559398   0.0621078  -0.0026127  -0.0023503  -0.0011902  -0.0060407
   0.0015281  -0.0132535   0.0005576  -0.0130490  -0.0022321  -0.0128414
  -0.0054679   0.0041390  -0.0074260   0.0149262  -0.0035580   0.0036408
  -0.0184342   0.0018512  -0.0025366  -0.0165256  -0.0031215  -0.0219888
   0.0007792  -0.0005574  -0.0002077  -0.0414881  -0.0031482  -0.0062165
  -0.0026083  -0.0063625  -0.0427277  -0.0004035  -0.0062916  -0.0028330
   0.0023831  -0.0011006  -0.0046108  -0.0028522  -0.0049916  -0.0000861
  -0.0029295  -0.0167578  -0.0074531  -0.0246071   0.0003481  -0.0102365
   0.0006927  -0.0070220  -0.0092867  -0.0252633  -0.0006054   0.0053649
  -0.0049808   0.0003647  -0.3956102  -0.0142492  -0.0022444   0.0237297
   0.0745779   0.0040757  -0.3673693   0.0013267   0.0004122   0.0039472
   0.0027038   0.0311911   0.0036283   0.0017600   0.0009545   0.0023869
   0.0014794  -0.0225390   0.0748132   0.0007658  -0.0120572   0.8560489
   0.0086676   0.0116118   0.0000619   0.6458680   0.0305496   0.0179614
 TTTTTTTTTTTTTTTTTTTTTTTTTTTTTT MOQGAD      TELAPSE    55233.70 TCPU    45535.08
 WARNING **** GENBUD **** COUL. BIPO BUFFER TOO SMALL - TO AVOID I/O SET BIPOSIZE =     1998325
 TTTTTTTTTTTTTTTTTTTTTTTTTTTTTT SHELLX      TELAPSE    55303.39 TCPU    45603.19
 TTTTTTTTTTTTTTTTTTTTTTTTTTTTTT MONMO3      TELAPSE    55310.68 TCPU    45610.47
 NUMERICALLY INTEGRATED DENSITY    900.0000923818    900.0000921108
 TTTTTTTTTTTTTTTTTTTTTTTTTTTTTT NUMDFT      TELAPSE    55317.59 TCPU    45617.30
 CYC 107 ETOT(AU) -3.144668542138E+04 DETOT -1.81E-07 tst  2.77E-09 PX  2.44E-04
 MODIFIED BROYDEN: MIX%= 115 W0=  1.000000000000E-04 W=  5.491049311568E+02
 TTTTTTTTTTTTTTTTTTTTTTTTTTTTTT FDIK        TELAPSE    55543.78 TCPU    45827.32

    ALPHA      ELECTRONS
 INSULATING STATE
 TOP OF VALENCE BANDS -    BAND    900; K    3; EIG -8.8385625E-02 AU
 TOP OF VALENCE BANDS -    BAND    900; K    1; EIG -8.9069514E-02 AU
 BOTTOM OF VIRTUAL BANDS - BAND    901; K    7; EIG -7.4981413E-02 AU
 BOTTOM OF VIRTUAL BANDS - BAND    901; K    1; EIG -7.4418726E-02 AU

    BETA       ELECTRONS
 INSULATING STATE
 TOP OF VALENCE BANDS -    BAND    900; K    3; EIG -8.6124486E-02 AU
 TOP OF VALENCE BANDS -    BAND    900; K    1; EIG -8.9069514E-02 AU
 BOTTOM OF VIRTUAL BANDS - BAND    901; K    8; EIG -7.4682398E-02 AU
 BOTTOM OF VIRTUAL BANDS - BAND    901; K    1; EIG -7.4418726E-02 AU
 TTTTTTTTTTTTTTTTTTTTTTTTTTTTTT PDIG        TELAPSE    55770.95 TCPU    46039.36
 CHARGE NORMALIZATION FACTOR   1.00000000
 TOTAL ATOMIC CHARGES:
   8.6389676   8.7799050   8.7129480   8.6022611   8.5936883   8.7687798
   8.6541160   8.6230945   8.5654293   8.6870052   8.7055430   8.6825788
   8.5126144   8.6920562   8.7594599   8.5395356   8.5743810   8.5464311
   8.7286794   8.6271817   8.7294721   8.7662718   8.6639970   8.6810193
   8.6498663   8.7272115   8.6482012   8.6523531   8.6083089   8.5868259
   8.6484495   8.5920700   8.7166120   8.6573406   8.6438672   8.6166770
   8.5585313   8.6156824   8.5630661   8.5794339   8.6959337   8.5487906
   8.6426377   8.6127332   8.6938450   8.5326073   8.6082646   8.5744443
   8.7130922   8.6028712   8.6091762   8.8352706   8.6093616   8.5607903
   8.7169675   8.5682312   8.7210463   8.7297148   8.7126976   8.5854457
   8.6355147   8.5380834   8.8994199   8.8216372  13.6550211  13.6061784
  14.0677386  13.8885366  14.0150651  13.9735087  13.2928808  13.1614874
  13.8861379  13.9929291  14.0425322  14.0379983  13.3372989  13.6209184
  14.1678781  14.1326777  13.9540339  13.9645111  13.5584243  13.0587351
  13.9010994  14.0643037  13.9915700  14.0072426  13.9810193  13.9888697
  14.0321239  13.9903685  14.0093799  13.9930980  13.9934997  14.0256790
  12.9645636  13.0796789  12.8698997  14.0135788  14.0013864  14.0271094
  14.0241610  14.1035156  13.8103209  13.9870885  13.9875540  14.0191978
  14.0491566  14.0533455  14.0620721  14.0340172  14.0212852  14.0228091
  14.0146472  13.6636209  13.6366675  13.9829778  13.9770701  13.9970126
  14.0221433  14.0541605  14.0516450  13.2592817  13.4236470  13.4740951
  13.6625044  13.1683129  13.2830387  13.0945011  13.2700728  12.6894265
  12.7089595  13.1304770  13.0459056  12.9229853  13.2368299  12.6669323
  12.8058996  12.8376146  12.9932635  12.8033124  13.3291355  12.9034719
  12.6630175  13.1659513  12.7454074  12.8072332  12.8806253  12.8753777
  12.6458692  12.6493390  13.0688965  12.7424411  12.7578837  12.6963705
 SUMMED SPIN DENSITY           0.00000000
 TOTAL ATOMIC SPINS  :
  -0.0084444  -0.0002462  -0.0011843   0.0005578   0.0000166  -0.0006590
  -0.0006998  -0.0005206   0.0000080  -0.0011612  -0.0010725  -0.0001088
   0.0057191   0.0092027  -0.0047216  -0.0017614   0.0023568   0.0015060
   0.0117520   0.0008461   0.0009122   0.0000730   0.0001077  -0.0002540
   0.0003465  -0.0094359  -0.0014753   0.0059451   0.0031440   0.0038601
  -0.0000724   0.0002018   0.0004398   0.0009660   0.0003247  -0.0191227
  -0.0003949  -0.0002731   0.0000623   0.0004485  -0.0001273   0.0002758
  -0.0000488   0.0000551   0.0005101   0.0002389   0.0000338   0.0001667
   0.0006673   0.0012846  -0.0048472  -0.0010938  -0.0079358   0.0006669
   0.0156699  -0.0001273   0.0139666  -0.0132067  -0.0025582   0.0000993
  -0.0004626   0.0006759   0.0034440  -0.0003631  -0.1243424  -0.0073241
  -0.0139440  -0.0068204  -0.0012179  -0.0114097   0.0017441   0.0000629
  -0.5559198   0.0622733  -0.0026323  -0.0023499  -0.0011906  -0.0060161
   0.0015296  -0.0132550   0.0005590  -0.0130557  -0.0022316  -0.0128451
  -0.0054656   0.0041359  -0.0074239   0.0149261  -0.0035571   0.0036492
  -0.0184312   0.0018539  -0.0025352  -0.0165332  -0.0031176  -0.0219888
   0.0007794  -0.0005559  -0.0002082  -0.0414875  -0.0031470  -0.0062156
  -0.0026082  -0.0063618  -0.0426841  -0.0004053  -0.0062928  -0.0028334
   0.0023828  -0.0011184  -0.0045949  -0.0028528  -0.0049909  -0.0000909
  -0.0029299  -0.0167580  -0.0074522  -0.0246083   0.0003538  -0.0102364
   0.0006946  -0.0070217  -0.0092856  -0.0252616  -0.0006068   0.0053101
  -0.0049810   0.0003683  -0.3956121  -0.0142460  -0.0022440   0.0237298
   0.0745745   0.0040759  -0.3673699   0.0013279   0.0004120   0.0039469
   0.0027029   0.0311895   0.0036264   0.0017605   0.0009550   0.0023876
   0.0014787  -0.0225610   0.0748159   0.0007658  -0.0120635   0.8560392
   0.0086677   0.0116120   0.0000624   0.6458564   0.0305481   0.0179620
 TTTTTTTTTTTTTTTTTTTTTTTTTTTTTT MOQGAD      TELAPSE    55771.54 TCPU    46039.70
 WARNING **** GENBUD **** COUL. BIPO BUFFER TOO SMALL - TO AVOID I/O SET BIPOSIZE =     1998325
 TTTTTTTTTTTTTTTTTTTTTTTTTTTTTT SHELLX      TELAPSE    55840.11 TCPU    46107.30
 TTTTTTTTTTTTTTTTTTTTTTTTTTTTTT MONMO3      TELAPSE    55852.49 TCPU    46119.67
 NUMERICALLY INTEGRATED DENSITY    900.0000923819    900.0000921106
 TTTTTTTTTTTTTTTTTTTTTTTTTTTTTT NUMDFT      TELAPSE    55860.54 TCPU    46127.65
 CYC 108 ETOT(AU) -3.144668542140E+04 DETOT -2.10E-08 tst  4.85E-10 PX  7.74E-05
 MODIFIED BROYDEN: MIX%= 115 W0=  1.000000000000E-04 W=  8.703962421723E+02
 TTTTTTTTTTTTTTTTTTTTTTTTTTTTTT FDIK        TELAPSE    56089.48 TCPU    46344.52

    ALPHA      ELECTRONS
 INSULATING STATE
 TOP OF VALENCE BANDS -    BAND    900; K    3; EIG -8.8409617E-02 AU
 TOP OF VALENCE BANDS -    BAND    900; K    1; EIG -8.9092267E-02 AU
 BOTTOM OF VIRTUAL BANDS - BAND    901; K    7; EIG -7.4969698E-02 AU
 BOTTOM OF VIRTUAL BANDS - BAND    901; K    1; EIG -7.4413021E-02 AU

    BETA       ELECTRONS
 INSULATING STATE
 TOP OF VALENCE BANDS -    BAND    900; K    3; EIG -8.6096806E-02 AU
 TOP OF VALENCE BANDS -    BAND    900; K    1; EIG -8.9092267E-02 AU
 BOTTOM OF VIRTUAL BANDS - BAND    901; K    8; EIG -7.4683599E-02 AU
 BOTTOM OF VIRTUAL BANDS - BAND    901; K    1; EIG -7.4413021E-02 AU
 TTTTTTTTTTTTTTTTTTTTTTTTTTTTTT PDIG        TELAPSE    56602.16 TCPU    46827.77
 CHARGE NORMALIZATION FACTOR   1.00000000
 TOTAL ATOMIC CHARGES:
   8.6388180   8.7800367   8.7129210   8.6022246   8.5936377   8.7688111
   8.6541288   8.6230937   8.5653902   8.6870397   8.7056512   8.6825880
   8.5126952   8.6920494   8.7595379   8.5395381   8.5743950   8.5465413
   8.7287107   8.6272215   8.7295156   8.7663126   8.6639365   8.6809896
   8.6498804   8.7272332   8.6482028   8.6524510   8.6083233   8.5868332
   8.6484647   8.5920805   8.7166414   8.6573895   8.6438730   8.6164789
   8.5585348   8.6157071   8.5630918   8.5793754   8.6959363   8.5487722
   8.6426656   8.6126976   8.6938372   8.5326581   8.6082634   8.5744277
   8.7131358   8.6028618   8.6092493   8.8352406   8.6093769   8.5607856
   8.7170097   8.5681883   8.7210328   8.7297271   8.7126715   8.5854353
   8.6355242   8.5381139   8.8994019   8.8216803  13.6560472  13.6064005
  14.0678102  13.8882413  14.0148509  13.9735340  13.2927787  13.1614429
  13.8851145  13.9924928  14.0422796  14.0377978  13.3374712  13.6205609
  14.1680492  14.1322528  13.9539141  13.9646303  13.5583693  13.0588462
  13.9009176  14.0643908  13.9914354  14.0068371  13.9806154  13.9887441
  14.0320364  13.9901926  14.0091758  13.9930455  13.9934974  14.0254798
  12.9645988  13.0797321  12.8699234  14.0136254  14.0012066  14.0271491
  14.0240858  14.1034748  13.8109954  13.9868529  13.9875884  14.0192064
  14.0492897  14.0536717  14.0621031  14.0340600  14.0211293  14.0228276
  14.0145226  13.6637191  13.6369067  13.9828245  13.9770344  13.9970425
  14.0223749  14.0543047  14.0517982  13.2593730  13.4238109  13.4744279
  13.6627185  13.1683714  13.2831831  13.0945929  13.2701867  12.6894711
  12.7089178  13.1305028  13.0458545  12.9230476  13.2367876  12.6669625
  12.8059187  12.8376130  12.9932429  12.8032714  13.3291471  12.9034694
  12.6630828  13.1662567  12.7453849  12.8072427  12.8808023  12.8753200
  12.6458858  12.6493512  13.0689153  12.7424133  12.7578132  12.6963229
 SUMMED SPIN DENSITY           0.00000000
 TOTAL ATOMIC SPINS  :
  -0.0084144  -0.0002421  -0.0011851   0.0005640   0.0000155  -0.0006601
  -0.0006950  -0.0005155  -0.0000233  -0.0011612  -0.0010757  -0.0001088
   0.0057202   0.0092070  -0.0047246  -0.0017662   0.0023585   0.0015047
   0.0117527   0.0008295   0.0009125   0.0000730   0.0001044  -0.0002537
   0.0003461  -0.0094305  -0.0014702   0.0059515   0.0031456   0.0038700
  -0.0000729   0.0002035   0.0004437   0.0009665   0.0003253  -0.0191057
  -0.0003934  -0.0002728   0.0000614   0.0004472  -0.0001268   0.0002741
  -0.0000471   0.0000590   0.0005141   0.0002389   0.0000340   0.0001675
   0.0006777   0.0012837  -0.0048349  -0.0010935  -0.0079352   0.0006667
   0.0156781  -0.0001283   0.0139776  -0.0131949  -0.0025560   0.0001004
  -0.0004610   0.0006740   0.0034505  -0.0003676  -0.1253347  -0.0073614
  -0.0140396  -0.0068541  -0.0012090  -0.0114941   0.0017451   0.0000625
  -0.5554553   0.0633369  -0.0027538  -0.0023533  -0.0011975  -0.0058059
   0.0015368  -0.0132404   0.0005655  -0.0130996  -0.0022194  -0.0128718
  -0.0054572   0.0041296  -0.0074031   0.0149386  -0.0035580   0.0037023
  -0.0183983   0.0018688  -0.0025339  -0.0165828  -0.0030936  -0.0219632
   0.0007803  -0.0005372  -0.0002100  -0.0414676  -0.0031466  -0.0062025
  -0.0026116  -0.0063571  -0.0425739  -0.0004219  -0.0063090  -0.0028417
   0.0023712  -0.0012442  -0.0045126  -0.0028598  -0.0049830  -0.0001237
  -0.0029309  -0.0167466  -0.0074451  -0.0246091   0.0003824  -0.0102296
   0.0007048  -0.0070240  -0.0092833  -0.0252553  -0.0006247   0.0049197
  -0.0049852   0.0003888  -0.3956589  -0.0142279  -0.0022429   0.0237325
   0.0745713   0.0040735  -0.3673629   0.0013350   0.0004125   0.0039431
   0.0027021   0.0311923   0.0036255   0.0017629   0.0009571   0.0023898
   0.0014690  -0.0227126   0.0747856   0.0007671  -0.0121309   0.8559843
   0.0086683   0.0116118   0.0000698   0.6458795   0.0305444   0.0179591
 TTTTTTTTTTTTTTTTTTTTTTTTTTTTTT MOQGAD      TELAPSE    56610.78 TCPU    46836.38
 WARNING **** GENBUD **** COUL. BIPO BUFFER TOO SMALL - TO AVOID I/O SET BIPOSIZE =     1998325
 TTTTTTTTTTTTTTTTTTTTTTTTTTTTTT SHELLX      TELAPSE    56678.48 TCPU    46903.75
 +++ ENERGIES IN A.U. +++
 ::: EXT EL-POLE                                  -4.3581718365832E+04
 ::: EXT EL-SPHEROPOLE                             3.1507194236454E+02
 ::: BIELET ZONE E-E                               5.3266083622639E+04
 ::: TOTAL E-E                                     9.9994371991711E+03
 ::: TOTAL E-N + N-E                              -6.5344769984086E+04
 ::: TOTAL N-N                                    -5.0839600157795E+03
 ::: KINETIC ENERGY                                3.1335987652940E+04
 ::: PSEUDO TOTAL   ENERGY                        -2.9093305147754E+04
 ::: VIRIAL COEFFICIENT                            1.0371125062241E+00
 TTTTTTTTTTTTTTTTTTTTTTTTTTTTTT MONMO3      TELAPSE    56690.93 TCPU    46916.17
 NUMERICALLY INTEGRATED DENSITY    900.0000923801    900.0000921062
 TTTTTTTTTTTTTTTTTTTTTTTTTTTTTT NUMDFT      TELAPSE    56700.71 TCPU    46925.70
 CYC 109 ETOT(AU) -3.144668541941E+04 DETOT  2.00E-06 tst  2.64E-08 PX  7.74E-05

 == SCF ENDED - CONVERGENCE ON ENERGY      E(AU) -3.1446685419406E+04 CYCLES 109


 ENERGY EXPRESSION=HARTREE+FOCK EXCH*0.05000+(BECKE  EXCH)*0.95000+LYP    CORR

 FINITE TEMPERATURE DFT CALCULATION 
 TEMPERATURE      (T)    1.000000000000E-13 HARTREE 
 ENERGY           (E)   -3.144668541941E+04
 FREE ENERGY      (F)   -3.144668541941E+04
 ELECTRON ENTROPY (S)    0.000000000000E+00
 (E(T)+F(T))/2    (E0)  -3.144668541941E+04


 TOTAL ENERGY(DFT)(AU)(109) -3.1446685419406E+04 DE 2.0E-06 tester 2.6E-08
 TTTTTTTTTTTTTTTTTTTTTTTTTTTTTT EDFT        TELAPSE    56994.31 TCPU    47187.11
 EIGENVECTORS IN FORTRAN UNIT 10
 TTTTTTTTTTTTTTTTTTTTTTTTTTTTTT END         TELAPSE    57047.17 TCPU    47228.53
 EEEEEEEEEE TERMINATION  DATE 21 04 2015 TIME 15:57:21.8
NODE    0 CPU TIME =     47228.528
    TOTAL CPU TIME =   9772936.602
