--------------------------------------------------------------------------
WARNING: Open MPI will create a shared memory backing file in a
directory that appears to be mounted on a network filesystem.
Creating the shared memory backup file on a network file system, such
as NFS or Lustre is not recommended -- it may cause excessive network
traffic to your file servers and/or cause shared memory traffic in
Open MPI to be much slower than expected.

You may want to check what the typical temporary directory is on your
node.  Possible sources of the location of this temporary directory
include the $TEMPDIR, $TEMP, and $TMP environment variables.

Note, too, that system administrators can set a list of filesystems
where Open MPI is disallowed from creating temporary files by settings
the MCA parameter "orte_no_session_dir".

  Local host: r2i7n3
  Fileame:    /ichec/work/scratch/tmp/270872.service1.cb3.ichec.ie/openmpi-sessions-emehes@r2i7n3_0/60458/1/shared_mem_pool.r2i7n3

You can set the MCA paramter shmem_mmap_enable_nfs_warning to 0 to
disable this message.
--------------------------------------------------------------------------
--------------------------------------------------------------------------
WARNING: It appears that your OpenFabrics subsystem is configured to only
allow registering part of your physical memory.  This can cause MPI jobs to
run with erratic performance, hang, and/or crash.

This may be caused by your OpenFabrics vendor limiting the amount of
physical memory that can be registered.  You should investigate the
relevant Linux kernel module parameters that control how much physical
memory can be registered, and increase them to allow registering all
physical memory on your machine.

See this Open MPI FAQ item for more information on these Linux kernel module
parameters:

    http://www.open-mpi.org/faq/?category=openfabrics#ib-locked-pages

  Local host:              r2i7n3
  Registerable memory:     32768 MiB
  Total memory:            65506 MiB

Your MPI job will continue, but may be behave poorly and/or hang.
--------------------------------------------------------------------------
         192 PROCESSORS WORKING

         
 *******************************************************************************
 *                                                                             *
 *                                CRYSTAL09                                    *
 *                              public : 2.0                                   *
 *                      December 10th, 2012 - parallel executable              *
 *                                                                             *
 *                                                                             *
 *                                                                             *
 *                              MAIN AUTHORS                                   *
 *                                                                             *
 *    R. DOVESI(1,10), V.R. SAUNDERS(2), C. ROETTI(1,10), R. ORLANDO (1,3),    *
 *  C.M. ZICOVICH-WILSON(1,4), F. PASCALE(5), B. CIVALLERI(1,10), K. DOLL(6),  *
 *       N.M. HARRISON(2,7), I. J. BUSH(2), Ph. D'ARCO(8), M. LLUNELL(9)       *
 *                                                                             *
 * (1) THEORETICAL CHEMISTRY GROUP - UNIVERSITA' DI TORINO - TORINO (ITALY)    *
 *      http://www.crystal.unito.it                                            *
 * (2) COMPUTATIONAL SCIENCE & ENGINEERING DEPARTMENT - STFC DARESBURY LABORATO*Y (UK)
 *     http://www.cse.stfc.ac.uk/cmg/CRYSTAL/                                  *
 * (3) UNIVERSITA' DEL PIEMONTE ORIENTALE - ALESSANDRIA (ITALY)                *
 * (4) UNIVERSIDAD AUTONOMA DEL ESTADO DE MORELOS - CUERNAVACA (MEXICO)        *
 * (5) UNIVERSITE' HENRI POINCARE' - NANCY (FRANCE)                            *
 * (6) MPI FUER FESTKOERPERFORSCHUNG - STUTTGART (GERMANY)                     *
 * (7) IMPERIAL COLLEGE - LONDON (UK)                                          *
 * (8) UNIVERSITE' PIERRE ET MARIE CURIE - PARIS (FRANCE)                      *
 * (9) UNIVERSIDAD DE BARCELONA - BARCELONA (SPAIN)                            *
 *(10) NIS - NANOSTRUCTURED INTERFACES AND SURFACES - TORINO (ITALY)           *
 *     http://www.crystal.unito.it                                             *
 *******************************************************************************
 EEEEEEEEEE STARTING  DATE 05 09 2014 TIME 05:54:00.6
 Created with astools                                                            

 CRYSTAL CALCULATION
 (INPUT ACCORDING TO THE INTERNATIONAL TABLES FOR X-RAY CRYSTALLOGRAPHY)
 CRYSTAL FAMILY                       :  TRICLINIC   
 CRYSTAL CLASS  (GROTH - 1921)        :  TRICLINIC PEDIAL                     

 SPACE GROUP (NONCENTROSYMMETRIC)     :  P 1             

 LATTICE PARAMETERS  (ANGSTROMS AND DEGREES) - CONVENTIONAL CELL
        A           B           C        ALPHA        BETA       GAMMA
    10.84000    10.84000    18.86120    90.00000    90.00000    90.00000


 NUMBER OF IRREDUCIBLE ATOMS IN THE CONVENTIONAL CELL:  148

 INPUT COORDINATES

 ATOM AT. N.              COORDINATES
   1   8     2.519110000000E-01  3.792760000000E-01  6.296570000000E-01
   2   8     1.459860000000E-01  8.180640000000E-01  6.917800000000E-01
   3   8     4.830460000000E-01  3.224260000000E-01  6.093220000000E-01
   4   8     9.113070000000E-01  4.591390000000E-01  5.801510000000E-01
   5   8     1.188900000000E-01  7.229800000000E-02  6.767270000000E-01
   6   8     4.758160000000E-01  5.866690000000E-01  5.953490000000E-01
   7   8     9.007230000000E-01  6.872040000000E-01  6.506470000000E-01
   8   8     3.271690000000E-01  3.109620000000E-01  5.065590000000E-01
   9   8     5.601730000000E-01 -5.413000000000E-03  5.340690000000E-01
  10   8     8.740140000000E-01  1.224540000000E-01  6.537030000000E-01
  11   8     3.677200000000E-02  1.363710000000E-01  5.503120000000E-01
  12   8     5.243220000000E-01  7.480450000000E-01  6.958200000000E-01
  13   8     7.738300000000E-02  5.263200000000E-01  6.688670000000E-01
  14   8     2.112750000000E-01  9.347750000000E-01  5.781800000000E-01
  15   8     1.377100000000E-01  6.986600000000E-01  5.728330000000E-01
  16   8     9.816290000000E-01  9.135780000000E-01  5.996900000000E-01
  17   8     6.504640000000E-01  7.687190000000E-01  5.727820000000E-01
  18   8     4.139290000000E-01  8.114300000000E-01  5.683020000000E-01
  19   8     3.204290000000E-01  1.415620000000E-01  6.078110000000E-01
  20   8     2.535160000000E-01  8.331930000000E-01  8.010790000000E-01
  21   8     8.581700000000E-02  2.549350000000E-01  8.777240000000E-01
  22   8     8.898400000000E-01  3.246970000000E-01  9.587550000000E-01
  23   8     3.862910000000E-01  5.179800000000E-02  8.132300000000E-01
  24   8     6.327390000000E-01  2.027440000000E-01  6.849200000000E-01
  25   8     2.341620000000E-01  5.899940000000E-01  8.815540000000E-01
  26   8     7.649060000000E-01  6.542900000000E-02  7.735580000000E-01
  27   8     3.570510000000E-01  3.905840000000E-01  8.530250000000E-01
  28   8     2.505030000000E-01  5.181770000000E-01  7.550090000000E-01
  29   8    -5.149800000000E-02  8.716470000000E-01  7.489250000000E-01
  30   8     1.044319000000E+00  8.581820000000E-01  9.526350000000E-01
  31   8     8.664430000000E-01  4.767260000000E-01  7.189130000000E-01
  32   8     4.681700000000E-01  6.066420000000E-01  8.099660000000E-01
  33   8     6.804660000000E-01  9.759160000000E-01  6.530170000000E-01
  34   8     5.196310000000E-01 -1.770700000000E-02  9.358460000000E-01
  35   8     5.861350000000E-01  6.742440000000E-01 -3.215800000000E-02
  36   8     4.953960000000E-01  8.475530000000E-01  8.045360000000E-01
  37   8     6.771530000000E-01  7.517290000000E-01  8.510960000000E-01
  38   8     8.862630000000E-01  1.059640000000E-01  8.994150000000E-01
  39   8     5.445740000000E-01  3.824820000000E-01  9.461730000000E-01
  40   8     6.777090000000E-01  2.143160000000E-01  8.669580000000E-01
  41   8     8.873000000000E-02  9.719660000000E-01  8.325100000000E-01
  42   8     2.718430000000E-01  9.593000000000E-03  9.303860000000E-01
  43   8     3.847330000000E-01  5.243510000000E-01  9.758120000000E-01
  44   8     4.481400000000E-02  4.672070000000E-01  8.194650000000E-01
  45   8     1.198370000000E-01  3.034820000000E-01  7.355450000000E-01
  46   8     8.944950000000E-01  2.666560000000E-01  7.961370000000E-01
  47   8     3.548400000000E-01  9.612470000000E-01  6.940410000000E-01
  48   8     4.516110000000E-01  3.947230000000E-01  7.269020000000E-01
  49   8     6.655340000000E-01  3.787230000000E-01  7.685970000000E-01
  50   8     6.792460000000E-01  6.172810000000E-01  7.506350000000E-01
  51   8     8.073940000000E-01  4.988840000000E-01  8.547050000000E-01
  52   8     6.174000000000E-02  7.022590000000E-01  8.046660000000E-01
  53   8     6.556440000000E-01  4.405940000000E-01  6.334540000000E-01
  54   8     9.912450000000E-01  5.532390000000E-01  9.434360000000E-01
  55   8     3.211630000000E-01  7.685660000000E-01  9.580000000000E-01
  56   8     4.546920000000E-01  1.967790000000E-01  9.173890000000E-01
  57  14     1.052360000000E-01  1.133930000000E-01  2.139000000000E-02
  58  14     2.672660000000E-01  2.695620000000E-01  2.243000000000E-02
  59  14     1.596150000000E-01  4.213060000000E-01  8.265900000000E-02
  60  14     4.314850000000E-01  1.636940000000E-01  8.012800000000E-02
  61  14     3.890800000000E-02  3.003570000000E-01  1.556210000000E-01
  62  14     3.060460000000E-01  5.874200000000E-02  1.593440000000E-01
  63  14     1.750060000000E-01  1.819040000000E-01  2.254180000000E-01
  64  14     4.205730000000E-01  4.146580000000E-01  2.209440000000E-01
  65  14     7.307300000000E-02  5.826850000000E-01  1.017720000000E+00
  66  14     3.486010000000E-01  8.386710000000E-01  3.628100000000E-02
  67  14     1.824380000000E-01  9.393740000000E-01  8.696000000000E-02
  68  14     4.183580000000E-01  6.792810000000E-01  1.078920000000E-01
  69  14     5.001700000000E-02  8.139470000000E-01  1.525160000000E-01
  70  14     2.833400000000E-01  5.406840000000E-01  1.585480000000E-01
  71  14     1.656020000000E-01  6.803080000000E-01  2.229310000000E-01
  72  14     4.265760000000E-01  9.221000000000E-01  2.223730000000E-01
  73  14     5.169850000000E-01 -2.145700000000E-02  2.603500000000E-02
  74  14     7.798570000000E-01  2.815580000000E-01  2.090200000000E-02
  75  14     6.741660000000E-01  4.451200000000E-01  7.487000000000E-02
  76  14     9.187970000000E-01  1.618550000000E-01  8.880900000000E-02
  77  14     5.524590000000E-01  3.061100000000E-01  1.437030000000E-01
  78  14     7.908980000000E-01  3.158900000000E-02  1.525590000000E-01
  79  14     6.732870000000E-01  1.790700000000E-01  2.158240000000E-01
  80  14     9.195510000000E-01  4.347880000000E-01  2.202680000000E-01
  81  14     5.227220000000E-01  5.749790000000E-01  2.133900000000E-02
  82  14     8.876620000000E-01  8.537480000000E-01  9.856700000000E-01
  83  14     6.999580000000E-01  8.936360000000E-01  7.020900000000E-02
  84  14     9.255710000000E-01  7.043110000000E-01  7.610900000000E-02
  85  14     5.642870000000E-01  8.068820000000E-01  1.562540000000E-01
  86  14     8.055390000000E-01  5.662700000000E-01  1.457840000000E-01
  87  14     6.813700000000E-01  6.780790000000E-01  2.241880000000E-01
  88  14     9.264690000000E-01  9.275470000000E-01  2.276170000000E-01
  89  14     5.531500000000E-02  5.418600000000E-02  2.949230000000E-01
  90  14     3.007150000000E-01  2.990980000000E-01  3.002050000000E-01
  91  14     4.226300000000E-02  5.571650000000E-01  2.939590000000E-01
  92  14     2.957610000000E-01  8.012630000000E-01  2.908160000000E-01
  93  14     5.427770000000E-01  5.850700000000E-02  2.860070000000E-01
  94  14     8.002930000000E-01  3.025360000000E-01  2.880530000000E-01
  95  14     5.489170000000E-01  5.458640000000E-01  2.839850000000E-01
  96  14     8.010350000000E-01  8.025000000000E-01  2.964950000000E-01
  97  14     1.783640000000E-01  4.408460000000E-01  3.629420000000E-01
  98  14     4.244640000000E-01  1.635930000000E-01  3.679930000000E-01
  99  14     3.776700000000E-02  3.328530000000E-01  4.323390000000E-01
 100  14     2.980440000000E-01  3.919500000000E-02  4.440520000000E-01
 101  14     1.211980000000E-01  1.576720000000E-01  4.788340000000E-01
 102  14     4.354070000000E-01  4.080100000000E-01  4.692940000000E-01
 103  14     1.753420000000E-01  9.244330000000E-01  3.663170000000E-01
 104  14     4.272860000000E-01  6.739520000000E-01  3.525040000000E-01
 105  14     3.821600000000E-02  8.037940000000E-01  4.334410000000E-01
 106  14     3.073480000000E-01  5.662150000000E-01  4.323900000000E-01
 107  14     1.327200000000E-01  6.410550000000E-01  4.910030000000E-01
 108  14     4.439500000000E-01  9.096760000000E-01  5.027200000000E-01
 109  14     6.704490000000E-01  4.246890000000E-01  3.563250000000E-01
 110  14     9.331070000000E-01  1.854530000000E-01  3.608560000000E-01
 111  14     5.792910000000E-01  2.759840000000E-01  4.251420000000E-01
 112  14     7.978920000000E-01  7.109000000000E-02  4.293720000000E-01
 113  14     7.224970000000E-01  2.144580000000E-01  5.141360000000E-01
 114  14     8.697470000000E-01  3.868150000000E-01  5.066120000000E-01
 115  14     6.761740000000E-01  9.464150000000E-01  3.549210000000E-01
 116  14     9.144240000000E-01  6.725650000000E-01  3.682240000000E-01
 117  14     5.504500000000E-01  8.072730000000E-01  4.140630000000E-01
 118  14     7.864180000000E-01  5.423420000000E-01  4.367900000000E-01
 119  14     7.069600000000E-01  7.271240000000E-01  4.838020000000E-01
 120  14     8.560240000000E-01  8.901280000000E-01  4.885000000000E-01
 121  14     3.417550000000E-01  2.833550000000E-01  5.902460000000E-01
 122  14    -9.380000000000E-04  1.061851000000E+00  6.231690000000E-01
 123  14     1.132150000000E-01  8.299090000000E-01  6.099890000000E-01
 124  14     5.449100000000E-01  4.572440000000E-01  5.735920000000E-01
 125  14     9.300870000000E-01  5.412350000000E-01  6.513450000000E-01
 126  14     2.533160000000E-01  1.024304000000E+00  6.443600000000E-01
 127  14     5.120520000000E-01  7.280340000000E-01  6.136620000000E-01
 128  14     6.891080000000E-01  9.395960000000E-01  5.695550000000E-01
 129  14     4.054960000000E-01  5.397600000000E-02  8.972040000000E-01
 130  14     8.402540000000E-01  5.302840000000E-01  9.367100000000E-01
 131  14     3.713620000000E-01  9.129810000000E-01  7.761430000000E-01
 132  14     7.376990000000E-01  9.766500000000E-02  6.908520000000E-01
 133  14     1.385570000000E-01  5.807880000000E-01  8.181760000000E-01
 134  14     8.357650000000E-01  7.948110000000E-01  7.108310000000E-01
 135  14     5.715720000000E-01  7.178900000000E-01  7.828930000000E-01
 136  14     2.638210000000E-01  6.300790000000E-01  9.622710000000E-01
 137  14     8.052200000000E-01  1.622120000000E-01  8.335010000000E-01
 138  14     9.848710000000E-01  2.036300000000E-01  9.361890000000E-01
 139  14     3.908570000000E-01  3.645590000000E-01  9.355410000000E-01
 140  14     3.322400000000E-02  3.207840000000E-01  8.058330000000E-01
 141  14     9.786200000000E-02  8.451600000000E-01  7.756650000000E-01
 142  14     6.064550000000E-01  2.418230000000E-01  9.403670000000E-01
 143  14     5.895150000000E-01  3.468800000000E-01  6.951210000000E-01
 144  14     1.222730000000E-01  9.726830000000E-01  9.159920000000E-01
 145  14     1.723660000000E-01  4.254700000000E-01  6.947490000000E-01
 146  14     7.161790000000E-01  7.291430000000E-01  9.325510000000E-01
 147  14     3.989920000000E-01  4.822020000000E-01  7.891330000000E-01
 148  14     7.543100000000E-01  4.974020000000E-01  7.742910000000E-01

 *******************************************************************************

 << INFORMATION >>: FROM NOW ON, ALL COORDINATES REFER TO THE PRIMITIVE CELL

 *******************************************************************************

 LATTICE PARAMETERS  (ANGSTROMS AND DEGREES) - PRIMITIVE CELL
       A          B          C         ALPHA     BETA     GAMMA        VOLUME
   10.84000   10.84000   18.86120    90.00000  90.00000  90.00000   2216.296623

 COORDINATES OF THE EQUIVALENT ATOMS (FRACTIONAL UNITS)

 N. ATOM EQUIV AT. N.          X                  Y                  Z

   1   1   1    8 O     2.51911000000E-01  3.79276000000E-01 -3.70343000000E-01

   2   2   1    8 O     1.45986000000E-01 -1.81936000000E-01 -3.08220000000E-01

   3   3   1    8 O     4.83046000000E-01  3.22426000000E-01 -3.90678000000E-01

   4   4   1    8 O    -8.86930000000E-02  4.59139000000E-01 -4.19849000000E-01

   5   5   1    8 O     1.18890000000E-01  7.22980000000E-02 -3.23273000000E-01

   6   6   1    8 O     4.75816000000E-01 -4.13331000000E-01 -4.04651000000E-01

   7   7   1    8 O    -9.92770000000E-02 -3.12796000000E-01 -3.49353000000E-01

   8   8   1    8 O     3.27169000000E-01  3.10962000000E-01 -4.93441000000E-01

   9   9   1    8 O    -4.39827000000E-01 -5.41300000000E-03 -4.65931000000E-01

  10  10   1    8 O    -1.25986000000E-01  1.22454000000E-01 -3.46297000000E-01

  11  11   1    8 O     3.67720000000E-02  1.36371000000E-01 -4.49688000000E-01

  12  12   1    8 O    -4.75678000000E-01 -2.51955000000E-01 -3.04180000000E-01

  13  13   1    8 O     7.73830000000E-02 -4.73680000000E-01 -3.31133000000E-01

  14  14   1    8 O     2.11275000000E-01 -6.52250000000E-02 -4.21820000000E-01

  15  15   1    8 O     1.37710000000E-01 -3.01340000000E-01 -4.27167000000E-01

  16  16   1    8 O    -1.83710000000E-02 -8.64220000000E-02 -4.00310000000E-01

  17  17   1    8 O    -3.49536000000E-01 -2.31281000000E-01 -4.27218000000E-01

  18  18   1    8 O     4.13929000000E-01 -1.88570000000E-01 -4.31698000000E-01

  19  19   1    8 O     3.20429000000E-01  1.41562000000E-01 -3.92189000000E-01

  20  20   1    8 O     2.53516000000E-01 -1.66807000000E-01 -1.98921000000E-01

  21  21   1    8 O     8.58170000000E-02  2.54935000000E-01 -1.22276000000E-01

  22  22   1    8 O    -1.10160000000E-01  3.24697000000E-01 -4.12450000000E-02

  23  23   1    8 O     3.86291000000E-01  5.17980000000E-02 -1.86770000000E-01

  24  24   1    8 O    -3.67261000000E-01  2.02744000000E-01 -3.15080000000E-01

  25  25   1    8 O     2.34162000000E-01 -4.10006000000E-01 -1.18446000000E-01

  26  26   1    8 O    -2.35094000000E-01  6.54290000000E-02 -2.26442000000E-01

  27  27   1    8 O     3.57051000000E-01  3.90584000000E-01 -1.46975000000E-01

  28  28   1    8 O     2.50503000000E-01 -4.81823000000E-01 -2.44991000000E-01

  29  29   1    8 O    -5.14980000000E-02 -1.28353000000E-01 -2.51075000000E-01

  30  30   1    8 O     4.43190000000E-02 -1.41818000000E-01 -4.73650000000E-02

  31  31   1    8 O    -1.33557000000E-01  4.76726000000E-01 -2.81087000000E-01

  32  32   1    8 O     4.68170000000E-01 -3.93358000000E-01 -1.90034000000E-01

  33  33   1    8 O    -3.19534000000E-01 -2.40840000000E-02 -3.46983000000E-01

  34  34   1    8 O    -4.80369000000E-01 -1.77070000000E-02 -6.41540000000E-02

  35  35   1    8 O    -4.13865000000E-01 -3.25756000000E-01 -3.21580000000E-02

  36  36   1    8 O     4.95396000000E-01 -1.52447000000E-01 -1.95464000000E-01

  37  37   1    8 O    -3.22847000000E-01 -2.48271000000E-01 -1.48904000000E-01

  38  38   1    8 O    -1.13737000000E-01  1.05964000000E-01 -1.00585000000E-01

  39  39   1    8 O    -4.55426000000E-01  3.82482000000E-01 -5.38270000000E-02

  40  40   1    8 O    -3.22291000000E-01  2.14316000000E-01 -1.33042000000E-01

  41  41   1    8 O     8.87300000000E-02 -2.80340000000E-02 -1.67490000000E-01

  42  42   1    8 O     2.71843000000E-01  9.59300000000E-03 -6.96140000000E-02

  43  43   1    8 O     3.84733000000E-01 -4.75649000000E-01 -2.41880000000E-02

  44  44   1    8 O     4.48140000000E-02  4.67207000000E-01 -1.80535000000E-01

  45  45   1    8 O     1.19837000000E-01  3.03482000000E-01 -2.64455000000E-01

  46  46   1    8 O    -1.05505000000E-01  2.66656000000E-01 -2.03863000000E-01

  47  47   1    8 O     3.54840000000E-01 -3.87530000000E-02 -3.05959000000E-01

  48  48   1    8 O     4.51611000000E-01  3.94723000000E-01 -2.73098000000E-01

  49  49   1    8 O    -3.34466000000E-01  3.78723000000E-01 -2.31403000000E-01

  50  50   1    8 O    -3.20754000000E-01 -3.82719000000E-01 -2.49365000000E-01

  51  51   1    8 O    -1.92606000000E-01  4.98884000000E-01 -1.45295000000E-01

  52  52   1    8 O     6.17400000000E-02 -2.97741000000E-01 -1.95334000000E-01

  53  53   1    8 O    -3.44356000000E-01  4.40594000000E-01 -3.66546000000E-01

  54  54   1    8 O    -8.75500000000E-03 -4.46761000000E-01 -5.65640000000E-02

  55  55   1    8 O     3.21163000000E-01 -2.31434000000E-01 -4.20000000000E-02

  56  56   1    8 O     4.54692000000E-01  1.96779000000E-01 -8.26110000000E-02

  57  57   1   14 SI    1.05236000000E-01  1.13393000000E-01  2.13900000000E-02

  58  58   1   14 SI    2.67266000000E-01  2.69562000000E-01  2.24300000000E-02

  59  59   1   14 SI    1.59615000000E-01  4.21306000000E-01  8.26590000000E-02

  60  60   1   14 SI    4.31485000000E-01  1.63694000000E-01  8.01280000000E-02

  61  61   1   14 SI    3.89080000000E-02  3.00357000000E-01  1.55621000000E-01

  62  62   1   14 SI    3.06046000000E-01  5.87420000000E-02  1.59344000000E-01

  63  63   1   14 SI    1.75006000000E-01  1.81904000000E-01  2.25418000000E-01

  64  64   1   14 SI    4.20573000000E-01  4.14658000000E-01  2.20944000000E-01

  65  65   1   14 SI    7.30730000000E-02 -4.17315000000E-01  1.77200000000E-02

  66  66   1   14 SI    3.48601000000E-01 -1.61329000000E-01  3.62810000000E-02

  67  67   1   14 SI    1.82438000000E-01 -6.06260000000E-02  8.69600000000E-02

  68  68   1   14 SI    4.18358000000E-01 -3.20719000000E-01  1.07892000000E-01

  69  69   1   14 SI    5.00170000000E-02 -1.86053000000E-01  1.52516000000E-01

  70  70   1   14 SI    2.83340000000E-01 -4.59316000000E-01  1.58548000000E-01

  71  71   1   14 SI    1.65602000000E-01 -3.19692000000E-01  2.22931000000E-01

  72  72   1   14 SI    4.26576000000E-01 -7.79000000000E-02  2.22373000000E-01

  73  73   1   14 SI   -4.83015000000E-01 -2.14570000000E-02  2.60350000000E-02

  74  74   1   14 SI   -2.20143000000E-01  2.81558000000E-01  2.09020000000E-02

  75  75   1   14 SI   -3.25834000000E-01  4.45120000000E-01  7.48700000000E-02

  76  76   1   14 SI   -8.12030000000E-02  1.61855000000E-01  8.88090000000E-02

  77  77   1   14 SI   -4.47541000000E-01  3.06110000000E-01  1.43703000000E-01

  78  78   1   14 SI   -2.09102000000E-01  3.15890000000E-02  1.52559000000E-01

  79  79   1   14 SI   -3.26713000000E-01  1.79070000000E-01  2.15824000000E-01

  80  80   1   14 SI   -8.04490000000E-02  4.34788000000E-01  2.20268000000E-01

  81  81   1   14 SI   -4.77278000000E-01 -4.25021000000E-01  2.13390000000E-02

  82  82   1   14 SI   -1.12338000000E-01 -1.46252000000E-01 -1.43300000000E-02

  83  83   1   14 SI   -3.00042000000E-01 -1.06364000000E-01  7.02090000000E-02

  84  84   1   14 SI   -7.44290000000E-02 -2.95689000000E-01  7.61090000000E-02

  85  85   1   14 SI   -4.35713000000E-01 -1.93118000000E-01  1.56254000000E-01

  86  86   1   14 SI   -1.94461000000E-01 -4.33730000000E-01  1.45784000000E-01

  87  87   1   14 SI   -3.18630000000E-01 -3.21921000000E-01  2.24188000000E-01

  88  88   1   14 SI   -7.35310000000E-02 -7.24530000000E-02  2.27617000000E-01

  89  89   1   14 SI    5.53150000000E-02  5.41860000000E-02  2.94923000000E-01

  90  90   1   14 SI    3.00715000000E-01  2.99098000000E-01  3.00205000000E-01

  91  91   1   14 SI    4.22630000000E-02 -4.42835000000E-01  2.93959000000E-01

  92  92   1   14 SI    2.95761000000E-01 -1.98737000000E-01  2.90816000000E-01

  93  93   1   14 SI   -4.57223000000E-01  5.85070000000E-02  2.86007000000E-01

  94  94   1   14 SI   -1.99707000000E-01  3.02536000000E-01  2.88053000000E-01

  95  95   1   14 SI   -4.51083000000E-01 -4.54136000000E-01  2.83985000000E-01

  96  96   1   14 SI   -1.98965000000E-01 -1.97500000000E-01  2.96495000000E-01

  97  97   1   14 SI    1.78364000000E-01  4.40846000000E-01  3.62942000000E-01

  98  98   1   14 SI    4.24464000000E-01  1.63593000000E-01  3.67993000000E-01

  99  99   1   14 SI    3.77670000000E-02  3.32853000000E-01  4.32339000000E-01

 100 100   1   14 SI    2.98044000000E-01  3.91950000000E-02  4.44052000000E-01

 101 101   1   14 SI    1.21198000000E-01  1.57672000000E-01  4.78834000000E-01

 102 102   1   14 SI    4.35407000000E-01  4.08010000000E-01  4.69294000000E-01

 103 103   1   14 SI    1.75342000000E-01 -7.55670000000E-02  3.66317000000E-01

 104 104   1   14 SI    4.27286000000E-01 -3.26048000000E-01  3.52504000000E-01

 105 105   1   14 SI    3.82160000000E-02 -1.96206000000E-01  4.33441000000E-01

 106 106   1   14 SI    3.07348000000E-01 -4.33785000000E-01  4.32390000000E-01

 107 107   1   14 SI    1.32720000000E-01 -3.58945000000E-01  4.91003000000E-01

 108 108   1   14 SI    4.43950000000E-01 -9.03240000000E-02 -4.97280000000E-01

 109 109   1   14 SI   -3.29551000000E-01  4.24689000000E-01  3.56325000000E-01

 110 110   1   14 SI   -6.68930000000E-02  1.85453000000E-01  3.60856000000E-01

 111 111   1   14 SI   -4.20709000000E-01  2.75984000000E-01  4.25142000000E-01

 112 112   1   14 SI   -2.02108000000E-01  7.10900000000E-02  4.29372000000E-01

 113 113   1   14 SI   -2.77503000000E-01  2.14458000000E-01 -4.85864000000E-01

 114 114   1   14 SI   -1.30253000000E-01  3.86815000000E-01 -4.93388000000E-01

 115 115   1   14 SI   -3.23826000000E-01 -5.35850000000E-02  3.54921000000E-01

 116 116   1   14 SI   -8.55760000000E-02 -3.27435000000E-01  3.68224000000E-01

 117 117   1   14 SI   -4.49550000000E-01 -1.92727000000E-01  4.14063000000E-01

 118 118   1   14 SI   -2.13582000000E-01 -4.57658000000E-01  4.36790000000E-01

 119 119   1   14 SI   -2.93040000000E-01 -2.72876000000E-01  4.83802000000E-01

 120 120   1   14 SI   -1.43976000000E-01 -1.09872000000E-01  4.88500000000E-01

 121 121   1   14 SI    3.41755000000E-01  2.83355000000E-01 -4.09754000000E-01

 122 122   1   14 SI   -9.38000000000E-04  6.18510000000E-02 -3.76831000000E-01

 123 123   1   14 SI    1.13215000000E-01 -1.70091000000E-01 -3.90011000000E-01

 124 124   1   14 SI   -4.55090000000E-01  4.57244000000E-01 -4.26408000000E-01

 125 125   1   14 SI   -6.99130000000E-02 -4.58765000000E-01 -3.48655000000E-01

 126 126   1   14 SI    2.53316000000E-01  2.43040000000E-02 -3.55640000000E-01

 127 127   1   14 SI   -4.87948000000E-01 -2.71966000000E-01 -3.86338000000E-01

 128 128   1   14 SI   -3.10892000000E-01 -6.04040000000E-02 -4.30445000000E-01

 129 129   1   14 SI    4.05496000000E-01  5.39760000000E-02 -1.02796000000E-01

 130 130   1   14 SI   -1.59746000000E-01 -4.69716000000E-01 -6.32900000000E-02

 131 131   1   14 SI    3.71362000000E-01 -8.70190000000E-02 -2.23857000000E-01

 132 132   1   14 SI   -2.62301000000E-01  9.76650000000E-02 -3.09148000000E-01

 133 133   1   14 SI    1.38557000000E-01 -4.19212000000E-01 -1.81824000000E-01

 134 134   1   14 SI   -1.64235000000E-01 -2.05189000000E-01 -2.89169000000E-01

 135 135   1   14 SI   -4.28428000000E-01 -2.82110000000E-01 -2.17107000000E-01

 136 136   1   14 SI    2.63821000000E-01 -3.69921000000E-01 -3.77290000000E-02

 137 137   1   14 SI   -1.94780000000E-01  1.62212000000E-01 -1.66499000000E-01

 138 138   1   14 SI   -1.51290000000E-02  2.03630000000E-01 -6.38110000000E-02

 139 139   1   14 SI    3.90857000000E-01  3.64559000000E-01 -6.44590000000E-02

 140 140   1   14 SI    3.32240000000E-02  3.20784000000E-01 -1.94167000000E-01

 141 141   1   14 SI    9.78620000000E-02 -1.54840000000E-01 -2.24335000000E-01

 142 142   1   14 SI   -3.93545000000E-01  2.41823000000E-01 -5.96330000000E-02

 143 143   1   14 SI   -4.10485000000E-01  3.46880000000E-01 -3.04879000000E-01

 144 144   1   14 SI    1.22273000000E-01 -2.73170000000E-02 -8.40080000000E-02

 145 145   1   14 SI    1.72366000000E-01  4.25470000000E-01 -3.05251000000E-01

 146 146   1   14 SI   -2.83821000000E-01 -2.70857000000E-01 -6.74490000000E-02

 147 147   1   14 SI    3.98992000000E-01  4.82202000000E-01 -2.10867000000E-01

 148 148   1   14 SI   -2.45690000000E-01  4.97402000000E-01 -2.25709000000E-01

 NUMBER OF SYMMETRY OPERATORS         :    1
 *******************************************************************************
 * GEOMETRY EDITING - INPUT COORDINATES ARE GIVEN IN ANGSTROM         
 *******************************************************************************

 GCALCO - MAX INDICES DIRECT LATTICE VECTOR    17    17    10
 NO.OF VECTORS CREATED 6999 STARS  502 RMAX   292.40560 BOHR

 GEOMETRY FOR WAVE FUNCTION - DIMENSIONALITY OF THE SYSTEM    3
 (NON PERIODIC DIRECTION: LATTICE PARAMETER FORMALLY SET TO 500)
 *******************************************************************************
 LATTICE PARAMETERS (ANGSTROMS AND DEGREES) - BOHR = 0.5291772083 ANGSTROM
 PRIMITIVE CELL - CENTRING CODE 1/0 VOLUME=  2216.296623 - DENSITY  2.600 g/cm^3
         A              B              C           ALPHA      BETA       GAMMA 
    10.84000000    10.84000000    18.86120000    90.000000  90.000000  90.000000
 *******************************************************************************
 ATOMS IN THE ASYMMETRIC UNIT  148 - ATOMS IN THE UNIT CELL:  148
     ATOM              X/A                 Y/B                 Z/C    
 *******************************************************************************
   1 T   8 O     2.519110000000E-01  3.792760000000E-01 -3.703430000000E-01
   2 T   8 O     1.459860000000E-01 -1.819360000000E-01 -3.082200000000E-01
   3 T   8 O     4.830460000000E-01  3.224260000000E-01 -3.906780000000E-01
   4 T   8 O    -8.869300000000E-02  4.591390000000E-01 -4.198490000000E-01
   5 T   8 O     1.188900000000E-01  7.229800000000E-02 -3.232730000000E-01
   6 T   8 O     4.758160000000E-01 -4.133310000000E-01 -4.046510000000E-01
   7 T   8 O    -9.927700000000E-02 -3.127960000000E-01 -3.493530000000E-01
   8 T   8 O     3.271690000000E-01  3.109620000000E-01 -4.934410000000E-01
   9 T   8 O    -4.398270000000E-01 -5.413000000000E-03 -4.659310000000E-01
  10 T   8 O    -1.259860000000E-01  1.224540000000E-01 -3.462970000000E-01
  11 T   8 O     3.677200000000E-02  1.363710000000E-01 -4.496880000000E-01
  12 T   8 O    -4.756780000000E-01 -2.519550000000E-01 -3.041800000000E-01
  13 T   8 O     7.738300000000E-02 -4.736800000000E-01 -3.311330000000E-01
  14 T   8 O     2.112750000000E-01 -6.522500000000E-02 -4.218200000000E-01
  15 T   8 O     1.377100000000E-01 -3.013400000000E-01 -4.271670000000E-01
  16 T   8 O    -1.837100000000E-02 -8.642200000000E-02 -4.003100000000E-01
  17 T   8 O    -3.495360000000E-01 -2.312810000000E-01 -4.272180000000E-01
  18 T   8 O     4.139290000000E-01 -1.885700000000E-01 -4.316980000000E-01
  19 T   8 O     3.204290000000E-01  1.415620000000E-01 -3.921890000000E-01
  20 T   8 O     2.535160000000E-01 -1.668070000000E-01 -1.989210000000E-01
  21 T   8 O     8.581700000000E-02  2.549350000000E-01 -1.222760000000E-01
  22 T   8 O    -1.101600000000E-01  3.246970000000E-01 -4.124500000000E-02
  23 T   8 O     3.862910000000E-01  5.179800000000E-02 -1.867700000000E-01
  24 T   8 O    -3.672610000000E-01  2.027440000000E-01 -3.150800000000E-01
  25 T   8 O     2.341620000000E-01 -4.100060000000E-01 -1.184460000000E-01
  26 T   8 O    -2.350940000000E-01  6.542900000000E-02 -2.264420000000E-01
  27 T   8 O     3.570510000000E-01  3.905840000000E-01 -1.469750000000E-01
  28 T   8 O     2.505030000000E-01 -4.818230000000E-01 -2.449910000000E-01
  29 T   8 O    -5.149800000000E-02 -1.283530000000E-01 -2.510750000000E-01
  30 T   8 O     4.431900000000E-02 -1.418180000000E-01 -4.736500000000E-02
  31 T   8 O    -1.335570000000E-01  4.767260000000E-01 -2.810870000000E-01
  32 T   8 O     4.681700000000E-01 -3.933580000000E-01 -1.900340000000E-01
  33 T   8 O    -3.195340000000E-01 -2.408400000000E-02 -3.469830000000E-01
  34 T   8 O    -4.803690000000E-01 -1.770700000000E-02 -6.415400000000E-02
  35 T   8 O    -4.138650000000E-01 -3.257560000000E-01 -3.215800000000E-02
  36 T   8 O     4.953960000000E-01 -1.524470000000E-01 -1.954640000000E-01
  37 T   8 O    -3.228470000000E-01 -2.482710000000E-01 -1.489040000000E-01
  38 T   8 O    -1.137370000000E-01  1.059640000000E-01 -1.005850000000E-01
  39 T   8 O    -4.554260000000E-01  3.824820000000E-01 -5.382700000000E-02
  40 T   8 O    -3.222910000000E-01  2.143160000000E-01 -1.330420000000E-01
  41 T   8 O     8.873000000000E-02 -2.803400000000E-02 -1.674900000000E-01
  42 T   8 O     2.718430000000E-01  9.593000000000E-03 -6.961400000000E-02
  43 T   8 O     3.847330000000E-01 -4.756490000000E-01 -2.418800000000E-02
  44 T   8 O     4.481400000000E-02  4.672070000000E-01 -1.805350000000E-01
  45 T   8 O     1.198370000000E-01  3.034820000000E-01 -2.644550000000E-01
  46 T   8 O    -1.055050000000E-01  2.666560000000E-01 -2.038630000000E-01
  47 T   8 O     3.548400000000E-01 -3.875300000000E-02 -3.059590000000E-01
  48 T   8 O     4.516110000000E-01  3.947230000000E-01 -2.730980000000E-01
  49 T   8 O    -3.344660000000E-01  3.787230000000E-01 -2.314030000000E-01
  50 T   8 O    -3.207540000000E-01 -3.827190000000E-01 -2.493650000000E-01
  51 T   8 O    -1.926060000000E-01  4.988840000000E-01 -1.452950000000E-01
  52 T   8 O     6.174000000000E-02 -2.977410000000E-01 -1.953340000000E-01
  53 T   8 O    -3.443560000000E-01  4.405940000000E-01 -3.665460000000E-01
  54 T   8 O    -8.755000000000E-03 -4.467610000000E-01 -5.656400000000E-02
  55 T   8 O     3.211630000000E-01 -2.314340000000E-01 -4.200000000000E-02
  56 T   8 O     4.546920000000E-01  1.967790000000E-01 -8.261100000000E-02
  57 T  14 SI    1.052360000000E-01  1.133930000000E-01  2.139000000000E-02
  58 T  14 SI    2.672660000000E-01  2.695620000000E-01  2.243000000000E-02
  59 T  14 SI    1.596150000000E-01  4.213060000000E-01  8.265900000000E-02
  60 T  14 SI    4.314850000000E-01  1.636940000000E-01  8.012800000000E-02
  61 T  14 SI    3.890800000000E-02  3.003570000000E-01  1.556210000000E-01
  62 T  14 SI    3.060460000000E-01  5.874200000000E-02  1.593440000000E-01
  63 T  14 SI    1.750060000000E-01  1.819040000000E-01  2.254180000000E-01
  64 T  14 SI    4.205730000000E-01  4.146580000000E-01  2.209440000000E-01
  65 T  14 SI    7.307300000000E-02 -4.173150000000E-01  1.772000000000E-02
  66 T  14 SI    3.486010000000E-01 -1.613290000000E-01  3.628100000000E-02
  67 T  14 SI    1.824380000000E-01 -6.062600000000E-02  8.696000000000E-02
  68 T  14 SI    4.183580000000E-01 -3.207190000000E-01  1.078920000000E-01
  69 T  14 SI    5.001700000000E-02 -1.860530000000E-01  1.525160000000E-01
  70 T  14 SI    2.833400000000E-01 -4.593160000000E-01  1.585480000000E-01
  71 T  14 SI    1.656020000000E-01 -3.196920000000E-01  2.229310000000E-01
  72 T  14 SI    4.265760000000E-01 -7.790000000000E-02  2.223730000000E-01
  73 T  14 SI   -4.830150000000E-01 -2.145700000000E-02  2.603500000000E-02
  74 T  14 SI   -2.201430000000E-01  2.815580000000E-01  2.090200000000E-02
  75 T  14 SI   -3.258340000000E-01  4.451200000000E-01  7.487000000000E-02
  76 T  14 SI   -8.120300000000E-02  1.618550000000E-01  8.880900000000E-02
  77 T  14 SI   -4.475410000000E-01  3.061100000000E-01  1.437030000000E-01
  78 T  14 SI   -2.091020000000E-01  3.158900000000E-02  1.525590000000E-01
  79 T  14 SI   -3.267130000000E-01  1.790700000000E-01  2.158240000000E-01
  80 T  14 SI   -8.044900000000E-02  4.347880000000E-01  2.202680000000E-01
  81 T  14 SI   -4.772780000000E-01 -4.250210000000E-01  2.133900000000E-02
  82 T  14 SI   -1.123380000000E-01 -1.462520000000E-01 -1.433000000000E-02
  83 T  14 SI   -3.000420000000E-01 -1.063640000000E-01  7.020900000000E-02
  84 T  14 SI   -7.442900000000E-02 -2.956890000000E-01  7.610900000000E-02
  85 T  14 SI   -4.357130000000E-01 -1.931180000000E-01  1.562540000000E-01
  86 T  14 SI   -1.944610000000E-01 -4.337300000000E-01  1.457840000000E-01
  87 T  14 SI   -3.186300000000E-01 -3.219210000000E-01  2.241880000000E-01
  88 T  14 SI   -7.353100000000E-02 -7.245300000000E-02  2.276170000000E-01
  89 T  14 SI    5.531500000000E-02  5.418600000000E-02  2.949230000000E-01
  90 T  14 SI    3.007150000000E-01  2.990980000000E-01  3.002050000000E-01
  91 T  14 SI    4.226300000000E-02 -4.428350000000E-01  2.939590000000E-01
  92 T  14 SI    2.957610000000E-01 -1.987370000000E-01  2.908160000000E-01
  93 T  14 SI   -4.572230000000E-01  5.850700000000E-02  2.860070000000E-01
  94 T  14 SI   -1.997070000000E-01  3.025360000000E-01  2.880530000000E-01
  95 T  14 SI   -4.510830000000E-01 -4.541360000000E-01  2.839850000000E-01
  96 T  14 SI   -1.989650000000E-01 -1.975000000000E-01  2.964950000000E-01
  97 T  14 SI    1.783640000000E-01  4.408460000000E-01  3.629420000000E-01
  98 T  14 SI    4.244640000000E-01  1.635930000000E-01  3.679930000000E-01
  99 T  14 SI    3.776700000000E-02  3.328530000000E-01  4.323390000000E-01
 100 T  14 SI    2.980440000000E-01  3.919500000000E-02  4.440520000000E-01
 101 T  14 SI    1.211980000000E-01  1.576720000000E-01  4.788340000000E-01
 102 T  14 SI    4.354070000000E-01  4.080100000000E-01  4.692940000000E-01
 103 T  14 SI    1.753420000000E-01 -7.556700000000E-02  3.663170000000E-01
 104 T  14 SI    4.272860000000E-01 -3.260480000000E-01  3.525040000000E-01
 105 T  14 SI    3.821600000000E-02 -1.962060000000E-01  4.334410000000E-01
 106 T  14 SI    3.073480000000E-01 -4.337850000000E-01  4.323900000000E-01
 107 T  14 SI    1.327200000000E-01 -3.589450000000E-01  4.910030000000E-01
 108 T  14 SI    4.439500000000E-01 -9.032400000000E-02 -4.972800000000E-01
 109 T  14 SI   -3.295510000000E-01  4.246890000000E-01  3.563250000000E-01
 110 T  14 SI   -6.689300000000E-02  1.854530000000E-01  3.608560000000E-01
 111 T  14 SI   -4.207090000000E-01  2.759840000000E-01  4.251420000000E-01
 112 T  14 SI   -2.021080000000E-01  7.109000000000E-02  4.293720000000E-01
 113 T  14 SI   -2.775030000000E-01  2.144580000000E-01 -4.858640000000E-01
 114 T  14 SI   -1.302530000000E-01  3.868150000000E-01 -4.933880000000E-01
 115 T  14 SI   -3.238260000000E-01 -5.358500000000E-02  3.549210000000E-01
 116 T  14 SI   -8.557600000000E-02 -3.274350000000E-01  3.682240000000E-01
 117 T  14 SI   -4.495500000000E-01 -1.927270000000E-01  4.140630000000E-01
 118 T  14 SI   -2.135820000000E-01 -4.576580000000E-01  4.367900000000E-01
 119 T  14 SI   -2.930400000000E-01 -2.728760000000E-01  4.838020000000E-01
 120 T  14 SI   -1.439760000000E-01 -1.098720000000E-01  4.885000000000E-01
 121 T  14 SI    3.417550000000E-01  2.833550000000E-01 -4.097540000000E-01
 122 T  14 SI   -9.380000000000E-04  6.185100000000E-02 -3.768310000000E-01
 123 T  14 SI    1.132150000000E-01 -1.700910000000E-01 -3.900110000000E-01
 124 T  14 SI   -4.550900000000E-01  4.572440000000E-01 -4.264080000000E-01
 125 T  14 SI   -6.991300000000E-02 -4.587650000000E-01 -3.486550000000E-01
 126 T  14 SI    2.533160000000E-01  2.430400000000E-02 -3.556400000000E-01
 127 T  14 SI   -4.879480000000E-01 -2.719660000000E-01 -3.863380000000E-01
 128 T  14 SI   -3.108920000000E-01 -6.040400000000E-02 -4.304450000000E-01
 129 T  14 SI    4.054960000000E-01  5.397600000000E-02 -1.027960000000E-01
 130 T  14 SI   -1.597460000000E-01 -4.697160000000E-01 -6.329000000000E-02
 131 T  14 SI    3.713620000000E-01 -8.701900000000E-02 -2.238570000000E-01
 132 T  14 SI   -2.623010000000E-01  9.766500000000E-02 -3.091480000000E-01
 133 T  14 SI    1.385570000000E-01 -4.192120000000E-01 -1.818240000000E-01
 134 T  14 SI   -1.642350000000E-01 -2.051890000000E-01 -2.891690000000E-01
 135 T  14 SI   -4.284280000000E-01 -2.821100000000E-01 -2.171070000000E-01
 136 T  14 SI    2.638210000000E-01 -3.699210000000E-01 -3.772900000000E-02
 137 T  14 SI   -1.947800000000E-01  1.622120000000E-01 -1.664990000000E-01
 138 T  14 SI   -1.512900000000E-02  2.036300000000E-01 -6.381100000000E-02
 139 T  14 SI    3.908570000000E-01  3.645590000000E-01 -6.445900000000E-02
 140 T  14 SI    3.322400000000E-02  3.207840000000E-01 -1.941670000000E-01
 141 T  14 SI    9.786200000000E-02 -1.548400000000E-01 -2.243350000000E-01
 142 T  14 SI   -3.935450000000E-01  2.418230000000E-01 -5.963300000000E-02
 143 T  14 SI   -4.104850000000E-01  3.468800000000E-01 -3.048790000000E-01
 144 T  14 SI    1.222730000000E-01 -2.731700000000E-02 -8.400800000000E-02
 145 T  14 SI    1.723660000000E-01  4.254700000000E-01 -3.052510000000E-01
 146 T  14 SI   -2.838210000000E-01 -2.708570000000E-01 -6.744900000000E-02
 147 T  14 SI    3.989920000000E-01  4.822020000000E-01 -2.108670000000E-01
 148 T  14 SI   -2.456900000000E-01  4.974020000000E-01 -2.257090000000E-01

 T = ATOM BELONGING TO THE ASYMMETRIC UNIT

 ****   1 SYMMOPS - TRANSLATORS IN FRACTIONAL UNITS
  V INV                   ROTATION MATRICES                       TRANSLATOR
  1  1  1.00  0.00  0.00  0.00  1.00  0.00  0.00  0.00  1.00    0.00  0.00  0.00

 DIRECT LATTICE VECTORS CARTESIAN COMPONENTS (ANGSTROM)
          X                    Y                    Z
   0.108400000000E+02   0.663758565138E-15   0.000000000000E+00
   0.000000000000E+00   0.108400000000E+02   0.000000000000E+00
   0.115491541040E-14   0.115491541040E-14   0.188612000000E+02


 CARTESIAN COORDINATES - PRIMITIVE CELL
 *******************************************************************************
 *      ATOM          X(ANGSTROM)         Y(ANGSTROM)         Z(ANGSTROM)
 *******************************************************************************
   1     8 O     2.730715240000E+00  4.111351840000E+00 -6.985113391600E+00
   2     8 O     1.582488240000E+00 -1.972186240000E+00 -5.813399064000E+00
   3     8 O     5.236218640000E+00  3.495097840000E+00 -7.368655893600E+00
   4     8 O    -9.614321200000E-01  4.977066760000E+00 -7.918855958800E+00
   5     8 O     1.288767600000E+00  7.837103200000E-01 -6.097316707600E+00
   6     8 O     5.157845440000E+00 -4.480508040000E+00 -7.632203441200E+00
   7     8 O    -1.076162680000E+00 -3.390708640000E+00 -6.589216803600E+00
   8     8 O     3.546511960000E+00  3.370828080000E+00 -9.306889389200E+00
   9     8 O    -4.767724680000E+00 -5.867692000000E-02 -8.788017777200E+00
  10     8 O    -1.365688240000E+00  1.327401360000E+00 -6.531576976400E+00
  11     8 O     3.986084800000E-01  1.478261640000E+00 -8.481655305600E+00
  12     8 O    -5.156349520000E+00 -2.731192200000E+00 -5.737199816000E+00
  13     8 O     8.388317200000E-01 -5.134691200000E+00 -6.245565739600E+00
  14     8 O     2.290221000000E+00 -7.070390000000E-01 -7.956031384000E+00
  15     8 O     1.492776400000E+00 -3.266525600000E+00 -8.056882220400E+00
  16     8 O    -1.991416400000E-01 -9.368144800000E-01 -7.550326972000E+00
  17     8 O    -3.788970240000E+00 -2.507086040000E+00 -8.057844141600E+00
  18     8 O     4.486990360000E+00 -2.044098800000E+00 -8.142342317600E+00
  19     8 O     3.473450360000E+00  1.534532080000E+00 -7.397155166800E+00
  20     8 O     2.748113440000E+00 -1.808187880000E+00 -3.751888765200E+00
  21     8 O     9.302562800000E-01  2.763495400000E+00 -2.306272091200E+00
  22     8 O    -1.194134400000E+00  3.519715480000E+00 -7.779301940000E-01
  23     8 O     4.187394440000E+00  5.614903200000E-01 -3.522706324000E+00
  24     8 O    -3.981109240000E+00  2.197744960000E+00 -5.942786896000E+00
  25     8 O     2.538316080000E+00 -4.444465040000E+00 -2.234033695200E+00
  26     8 O    -2.548418960000E+00  7.092503600000E-01 -4.270967850400E+00
  27     8 O     3.870432840000E+00  4.233930560000E+00 -2.772124870000E+00
  28     8 O     2.715452520000E+00 -5.222961320000E+00 -4.620824249200E+00
  29     8 O    -5.582383200000E-01 -1.391346520000E+00 -4.735575790000E+00
  30     8 O     4.804179600000E-01 -1.537307120000E+00 -8.933607380000E-01
  31     8 O    -1.447757880000E+00  5.167709840000E+00 -5.301638124400E+00
  32     8 O     5.074962800000E+00 -4.264000720000E+00 -3.584269280800E+00
  33     8 O    -3.463748560000E+00 -2.610705600000E-01 -6.544515759600E+00
  34     8 O    -5.207199960000E+00 -1.919438800000E-01 -1.210021424800E+00
  35     8 O    -4.486296600000E+00 -3.531195040000E+00 -6.065384696000E-01
  36     8 O     5.370092640000E+00 -1.652525480000E+00 -3.686685596800E+00
  37     8 O    -3.499661480000E+00 -2.691257640000E+00 -2.808508124800E+00
  38     8 O    -1.232909080000E+00  1.148649760000E+00 -1.897153802000E+00
  39     8 O    -4.936817840000E+00  4.146104880000E+00 -1.015241812400E+00
  40     8 O    -3.493634440000E+00  2.323185440000E+00 -2.509331770400E+00
  41     8 O     9.618332000000E-01 -3.038885600000E-01 -3.159062388000E+00
  42     8 O     2.946778120000E+00  1.039881200000E-01 -1.313003576800E+00
  43     8 O     4.170505720000E+00 -5.156035160000E+00 -4.562147056000E-01
  44     8 O     4.857837600000E-01  5.064523880000E+00 -3.405106742000E+00
  45     8 O     1.299033080000E+00  3.289744880000E+00 -4.987938646000E+00
  46     8 O    -1.143674200000E+00  2.890551040000E+00 -3.845100815600E+00
  47     8 O     3.846465600000E+00 -4.200825200000E-01 -5.770753890800E+00
  48     8 O     4.895463240000E+00  4.278797320000E+00 -5.150955997600E+00
  49     8 O    -3.625611440000E+00  4.105357320000E+00 -4.364538263600E+00
  50     8 O    -3.476973360000E+00 -4.148673960000E+00 -4.703323138000E+00
  51     8 O    -2.087849040000E+00  5.407902560000E+00 -2.740438054000E+00
  52     8 O     6.692616000000E-01 -3.227512440000E+00 -3.684233640800E+00
  53     8 O    -3.732819040000E+00  4.776038960000E+00 -6.913497415200E+00
  54     8 O    -9.490420000000E-02 -4.842889240000E+00 -1.066864916800E+00
  55     8 O     3.481406920000E+00 -2.508744560000E+00 -7.921704000000E-01
  56     8 O     4.928861280000E+00  2.133084360000E+00 -1.558142593200E+00
  57    14 SI    1.140758240000E+00  1.229180120000E+00  4.034410680000E-01
  58    14 SI    2.897163440000E+00  2.922052080000E+00  4.230567160000E-01
  59    14 SI    1.730226600000E+00  4.566957040000E+00  1.559047930800E+00
  60    14 SI    4.677297400000E+00  1.774442960000E+00  1.511310233600E+00
  61    14 SI    4.217627200000E-01  3.255869880000E+00  2.935198805200E+00
  62    14 SI    3.317538640000E+00  6.367632800000E-01  3.005419052800E+00
  63    14 SI    1.897065040000E+00  1.971839360000E+00  4.251653981600E+00
  64    14 SI    4.559011320000E+00  4.494892720000E+00  4.167268972800E+00
  65    14 SI    7.921113200000E-01 -4.523694600000E+00  3.342204640000E-01
  66    14 SI    3.778834840000E+00 -1.748806360000E+00  6.843031972000E-01
  67    14 SI    1.977627920000E+00 -6.571858400000E-01  1.640169952000E+00
  68    14 SI    4.535000720000E+00 -3.476593960000E+00  2.034972590400E+00
  69    14 SI    5.421842800000E-01 -2.016814520000E+00  2.876634779200E+00
  70    14 SI    3.071405600000E+00 -4.978985440000E+00  2.990405537600E+00
  71    14 SI    1.795125680000E+00 -3.465461280000E+00  4.204746177200E+00
  72    14 SI    4.624083840000E+00 -8.444360000000E-01  4.194221627600E+00
  73    14 SI   -5.235882600000E+00 -2.325938800000E-01  4.910513420000E-01
  74    14 SI   -2.386350120000E+00  3.052088720000E+00  3.942368024000E-01
  75    14 SI   -3.532040560000E+00  4.825100800000E+00  1.412138044000E+00
  76    14 SI   -8.802405200000E-01  1.754508200000E+00  1.675044310800E+00
  77    14 SI   -4.851344440000E+00  3.318232400000E+00  2.710411023600E+00
  78    14 SI   -2.266665680000E+00  3.424247600000E-01  2.877445810800E+00
  79    14 SI   -3.541568920000E+00  1.941118800000E+00  4.070699628800E+00
  80    14 SI   -8.720671600000E-01  4.713101920000E+00  4.154518801600E+00
  81    14 SI   -5.173693520000E+00 -4.607227640000E+00  4.024791468000E-01
  82    14 SI   -1.217743920000E+00 -1.585371680000E+00 -2.702809960000E-01
  83    14 SI   -3.252455280000E+00 -1.152985760000E+00  1.324225990800E+00
  84    14 SI   -8.068103600000E-01 -3.205268760000E+00  1.435507070800E+00
  85    14 SI   -4.723128920000E+00 -2.093399120000E+00  2.947137944800E+00
  86    14 SI   -2.107957240000E+00 -4.701633200000E+00  2.749661180800E+00
  87    14 SI   -3.453949200000E+00 -3.489623640000E+00  4.228454705600E+00
  88    14 SI   -7.970760400000E-01 -7.853905200000E-01  4.293129760400E+00
  89    14 SI    5.996146000000E-01  5.873762400000E-01  5.562601687600E+00
  90    14 SI    3.259750600000E+00  3.242222320000E+00  5.662226546000E+00
  91    14 SI    4.581309200000E-01 -4.800331400000E+00  5.544419490800E+00
  92    14 SI    3.206049240000E+00 -2.154309080000E+00  5.485138739200E+00
  93    14 SI   -4.956297320000E+00  6.342158800000E-01  5.394435228400E+00
  94    14 SI   -2.164823880000E+00  3.279490240000E+00  5.433025243600E+00
  95    14 SI   -4.889739720000E+00 -4.922834240000E+00  5.356297882000E+00
  96    14 SI   -2.156780600000E+00 -2.140900000000E+00  5.592251494000E+00
  97    14 SI    1.933465760000E+00  4.778770640000E+00  6.845521650400E+00
  98    14 SI    4.601189760000E+00  1.773348120000E+00  6.940789571600E+00
  99    14 SI    4.093942800000E-01  3.608126520000E+00  8.154432346800E+00
 100    14 SI    3.230796960000E+00  4.248738000000E-01  8.375353582400E+00
 101    14 SI    1.313786320000E+00  1.709164480000E+00  9.031383840800E+00
 102    14 SI    4.719811880000E+00  4.422828400000E+00  8.851447992800E+00
 103    14 SI    1.900707280000E+00 -8.191462800000E-01  6.909178200400E+00
 104    14 SI    4.631780240000E+00 -3.534360320000E+00  6.648648444800E+00
 105    14 SI    4.142614400000E-01 -2.126873040000E+00  8.175217389200E+00
 106    14 SI    3.331652320000E+00 -4.702229400000E+00  8.155394268000E+00
 107    14 SI    1.438684800000E+00 -3.890963800000E+00  9.260905783600E+00
 108    14 SI    4.812418000000E+00 -9.791121600000E-01 -9.379297536000E+00
 109    14 SI   -3.572332840000E+00  4.603628760000E+00  6.720717090000E+00
 110    14 SI   -7.251201200000E-01  2.010310520000E+00  6.806177187200E+00
 111    14 SI   -4.560485560000E+00  2.991666560000E+00  8.018688290400E+00
 112    14 SI   -2.190850720000E+00  7.706156000000E-01  8.098471166400E+00
 113    14 SI   -3.008132520000E+00  2.324724720000E+00 -9.163978076800E+00
 114    14 SI   -1.411942520000E+00  4.193074600000E+00 -9.305889745600E+00
 115    14 SI   -3.510273840000E+00 -5.808614000000E-01  6.694235965200E+00
 116    14 SI   -9.276438400000E-01 -3.549395400000E+00  6.945146508800E+00
 117    14 SI   -4.873122000000E+00 -2.089160680000E+00  7.809725055600E+00
 118    14 SI   -2.315228880000E+00 -4.961012720000E+00  8.238383548000E+00
 119    14 SI   -3.176553600000E+00 -2.957975840000E+00  9.125086282400E+00
 120    14 SI   -1.560699840000E+00 -1.191012480000E+00  9.213696200000E+00
 121    14 SI    3.704624200000E+00  3.071568200000E+00 -7.728452144800E+00
 122    14 SI   -1.016792000000E-02  6.704648400000E-01 -7.107484857200E+00
 123    14 SI    1.227250600000E+00 -1.843786440000E+00 -7.356075473200E+00
 124    14 SI   -4.933175600000E+00  4.956524960000E+00 -8.042566569600E+00
 125    14 SI   -7.578569200000E-01 -4.973012600000E+00 -6.576051686000E+00
 126    14 SI    2.745945440000E+00  2.634553600000E-01 -6.707797168000E+00
 127    14 SI   -5.289356320000E+00 -2.948111440000E+00 -7.286798285600E+00
 128    14 SI   -3.370069280000E+00 -6.547793600000E-01 -8.118709234000E+00
 129    14 SI    4.395576640000E+00  5.850998400000E-01 -1.938855915200E+00
 130    14 SI   -1.731646640000E+00 -5.091721440000E+00 -1.193725348000E+00
 131    14 SI    4.025564080000E+00 -9.432859600000E-01 -4.222211648400E+00
 132    14 SI   -2.843342840000E+00  1.058688600000E+00 -5.830902257600E+00
 133    14 SI    1.501957880000E+00 -4.544258080000E+00 -3.429418828800E+00
 134    14 SI   -1.780307400000E+00 -2.224248760000E+00 -5.454074342800E+00
 135    14 SI   -4.644159520000E+00 -3.058072400000E+00 -4.094898548400E+00
 136    14 SI    2.859819640000E+00 -4.009943640000E+00 -7.116142148000E-01
 137    14 SI   -2.111415200000E+00  1.758378080000E+00 -3.140370938800E+00
 138    14 SI   -1.639983600000E-01  2.207349200000E+00 -1.203552033200E+00
 139    14 SI    4.236889880000E+00  3.951819560000E+00 -1.215774090800E+00
 140    14 SI    3.601481600000E-01  3.477298560000E+00 -3.662222620400E+00
 141    14 SI    1.060824080000E+00 -1.678465600000E+00 -4.231227302000E+00
 142    14 SI   -4.266027800000E+00  2.621361320000E+00 -1.124749939600E+00
 143    14 SI   -4.449657400000E+00  3.760179200000E+00 -5.750383794800E+00
 144    14 SI    1.325439320000E+00 -2.961162800000E-01 -1.584491689600E+00
 145    14 SI    1.868447440000E+00  4.612094800000E+00 -5.757400161200E+00
 146    14 SI   -3.076619640000E+00 -2.936089880000E+00 -1.272169078800E+00
 147    14 SI    4.325073280000E+00  5.227069680000E+00 -3.977204660400E+00
 148    14 SI   -2.663279600000E+00  5.391837680000E+00 -4.257142590800E+00

 *******************************************************************************
 LOCAL ATOMIC FUNCTIONS BASIS SET
 *******************************************************************************
   ATOM  X(AU)  Y(AU)  Z(AU)    NO. TYPE  EXPONENT  S COEF   P COEF   D/F/G COEF
 *******************************************************************************
   1 O   5.160  7.769-13.200
                                  1 S  
                                         8.020E+03 1.080E-03 0.000E+00 0.000E+00
                                         1.338E+03 8.040E-03 0.000E+00 0.000E+00
                                         2.554E+02 5.324E-02 0.000E+00 0.000E+00
                                         6.922E+01 1.681E-01 0.000E+00 0.000E+00
                                         2.390E+01 3.581E-01 0.000E+00 0.000E+00
                                         9.264E+00 3.855E-01 0.000E+00 0.000E+00
                                         3.851E+00 1.468E-01 0.000E+00 0.000E+00
                                         1.212E+00 7.280E-02 0.000E+00 0.000E+00
                             2-   5 SP 
                                         4.943E+01-8.830E-03 9.580E-03 0.000E+00
                                         1.047E+01-9.150E-02 6.960E-02 0.000E+00
                                         3.235E+00-4.020E-02 2.065E-01 0.000E+00
                                         1.217E+00 3.790E-01 3.470E-01 0.000E+00
                             6-   9 SP 
                                         4.763E-01 1.000E+00 1.000E+00 0.000E+00
                            10-  13 SP 
                                         1.900E-01 1.000E+00 1.000E+00 0.000E+00
   2 O   2.990 -3.727-10.986
   3 O   9.895  6.605-13.925
   4 O  -1.817  9.405-14.964
   5 O   2.435  1.481-11.522
   6 O   9.747 -8.467-14.423
   7 O  -2.034 -6.408-12.452
   8 O   6.702  6.370-17.587
   9 O  -9.010 -0.111-16.607
  10 O  -2.581  2.508-12.343
  11 O   0.753  2.794-16.028
  12 O  -9.744 -5.161-10.842
  13 O   1.585 -9.703-11.802
  14 O   4.328 -1.336-15.035
  15 O   2.821 -6.173-15.225
  16 O  -0.376 -1.770-14.268
  17 O  -7.160 -4.738-15.227
  18 O   8.479 -3.863-15.387
  19 O   6.564  2.900-13.979
  20 O   5.193 -3.417 -7.090
  21 O   1.758  5.222 -4.358
  22 O  -2.257  6.651 -1.470
  23 O   7.913  1.061 -6.657
  24 O  -7.523  4.153-11.230
  25 O   4.797 -8.399 -4.222
  26 O  -4.816  1.340 -8.071
  27 O   7.314  8.001 -5.239
  28 O   5.131 -9.870 -8.732
  29 O  -1.055 -2.629 -8.949
  30 O   0.908 -2.905 -1.688
  31 O  -2.736  9.766-10.019
  32 O   9.590 -8.058 -6.773
  33 O  -6.546 -0.493-12.367
  34 O  -9.840 -0.363 -2.287
  35 O  -8.478 -6.673 -1.146
  36 O  10.148 -3.123 -6.967
  37 O  -6.613 -5.086 -5.307
  38 O  -2.330  2.171 -3.585
  39 O  -9.329  7.835 -1.919
  40 O  -6.602  4.390 -4.742
  41 O   1.818 -0.574 -5.970
  42 O   5.569  0.197 -2.481
  43 O   7.881 -9.743 -0.862
  44 O   0.918  9.571 -6.435
  45 O   2.455  6.217 -9.426
  46 O  -2.161  5.462 -7.266
  47 O   7.269 -0.794-10.905
  48 O   9.251  8.086 -9.734
  49 O  -6.851  7.758 -8.248
  50 O  -6.571 -7.840 -8.888
  51 O  -3.945 10.219 -5.179
  52 O   1.265 -6.099 -6.962
  53 O  -7.054  9.025-13.065
  54 O  -0.179 -9.152 -2.016
  55 O   6.579 -4.741 -1.497
  56 O   9.314  4.031 -2.944
  57 SI  2.156  2.323  0.762
                                729 S  
                                         8.765E+04 2.370E-04 0.000E+00 0.000E+00
                                         1.285E+04 1.920E-03 0.000E+00 0.000E+00
                                         2.786E+03 1.090E-02 0.000E+00 0.000E+00
                                         7.280E+02 4.960E-02 0.000E+00 0.000E+00
                                         2.195E+02 1.668E-01 0.000E+00 0.000E+00
                                         7.590E+01 3.630E-01 0.000E+00 0.000E+00
                                         2.946E+01 4.051E-01 0.000E+00 0.000E+00
                                         1.199E+01 1.504E-01 0.000E+00 0.000E+00
                           730- 733 SP 
                                         1.660E+02-8.840E-03 9.090E-03 0.000E+00
                                         3.937E+01-8.590E-02 6.010E-02 0.000E+00
                                         1.271E+01-7.120E-02 1.952E-01 0.000E+00
                                         4.718E+00 4.147E-01 3.384E-01 0.000E+00
                                         1.848E+00 6.168E-01 3.006E-01 0.000E+00
                                         7.365E-01 1.154E-01 6.480E-02 0.000E+00
                           734- 737 SP 
                                         4.175E+00-1.990E-02-8.700E-03 0.000E+00
                                         1.447E+00-1.864E-01-4.380E-03 0.000E+00
                                         5.023E-01 9.670E-02 2.207E-01 0.000E+00
                           738- 741 SP 
                                         3.220E-01 1.000E+00 1.000E+00 0.000E+00
                           742- 745 SP 
                                         1.300E-01 1.000E+00 1.000E+00 0.000E+00
                           746- 750 D  
                                         6.000E-01 0.000E+00 0.000E+00 1.000E+00
  58 SI  5.475  5.522  0.799
  59 SI  3.270  8.630  2.946
  60 SI  8.839  3.353  2.856
  61 SI  0.797  6.153  5.547
  62 SI  6.269  1.203  5.679
  63 SI  3.585  3.726  8.034
  64 SI  8.615  8.494  7.875
  65 SI  1.497 -8.549  0.632
  66 SI  7.141 -3.305  1.293
  67 SI  3.737 -1.242  3.099
  68 SI  8.570 -6.570  3.846
  69 SI  1.025 -3.811  5.436
  70 SI  5.804 -9.409  5.651
  71 SI  3.392 -6.549  7.946
  72 SI  8.738 -1.596  7.926
  73 SI -9.894 -0.440  0.928
  74 SI -4.510  5.768  0.745
  75 SI -6.675  9.118  2.669
  76 SI -1.663  3.316  3.165
  77 SI -9.168  6.271  5.122
  78 SI -4.283  0.647  5.438
  79 SI -6.693  3.668  7.693
  80 SI -1.648  8.906  7.851
  81 SI -9.777 -8.706  0.761
  82 SI -2.301 -2.996 -0.511
  83 SI -6.146 -2.179  2.502
  84 SI -1.525 -6.057  2.713
  85 SI -8.925 -3.956  5.569
  86 SI -3.983 -8.885  5.196
  87 SI -6.527 -6.594  7.991
  88 SI -1.506 -1.484  8.113
  89 SI  1.133  1.110 10.512
  90 SI  6.160  6.127 10.700
  91 SI  0.866 -9.071 10.477
  92 SI  6.059 -4.071 10.365
  93 SI -9.366  1.198 10.194
  94 SI -4.091  6.197 10.267
  95 SI -9.240 -9.303 10.122
  96 SI -4.076 -4.046 10.568
  97 SI  3.654  9.031 12.936
  98 SI  8.695  3.351 13.116
  99 SI  0.774  6.818 15.410
 100 SI  6.105  0.803 15.827
 101 SI  2.483  3.230 17.067
 102 SI  8.919  8.358 16.727
 103 SI  3.592 -1.548 13.056
 104 SI  8.753 -6.679 12.564
 105 SI  0.783 -4.019 15.449
 106 SI  6.296 -8.886 15.411
 107 SI  2.719 -7.353 17.501
 108 SI  9.094 -1.850-17.724
 109 SI -6.751  8.700 12.700
 110 SI -1.370  3.799 12.862
 111 SI -8.618  5.653 15.153
 112 SI -4.140  1.456 15.304
 113 SI -5.685  4.393-17.317
 114 SI -2.668  7.924-17.586
 115 SI -6.633 -1.098 12.650
 116 SI -1.753 -6.707 13.124
 117 SI -9.209 -3.948 14.758
 118 SI -4.375 -9.375 15.568
 119 SI -6.003 -5.590 17.244
 120 SI -2.949 -2.251 17.411
 121 SI  7.001  5.804-14.605
 122 SI -0.019  1.267-13.431
 123 SI  2.319 -3.484-13.901
 124 SI -9.322  9.366-15.198
 125 SI -1.432 -9.398-12.427
 126 SI  5.189  0.498-12.676
 127 SI -9.995 -5.571-13.770
 128 SI -6.369 -1.237-15.342
 129 SI  8.306  1.106 -3.664
 130 SI -3.272 -9.622 -2.256
 131 SI  7.607 -1.783 -7.979
 132 SI -5.373  2.001-11.019
 133 SI  2.838 -8.587 -6.481
 134 SI -3.364 -4.203-10.307
 135 SI -8.776 -5.779 -7.738
 136 SI  5.404 -7.578 -1.345
 137 SI -3.990  3.323 -5.934
 138 SI -0.310  4.171 -2.274
 139 SI  8.007  7.468 -2.297
 140 SI  0.681  6.571 -6.921
 141 SI  2.005 -3.172 -7.996
 142 SI -8.062  4.954 -2.125
 143 SI -8.409  7.106-10.867
 144 SI  2.505 -0.560 -2.994
 145 SI  3.531  8.716-10.880
 146 SI -5.814 -5.548 -2.404
 147 SI  8.173  9.878 -7.516
 148 SI -5.033 10.189 -8.045
 INFORMATION **** TOLINTEG **** COULOMB AND EXCHANGE SERIES TOLERANCES MODIFIED
 INFORMATION **** READM2 **** FULL DIRECT SCF (MONO AND BIEL INT) SELECTED
 INFORMATION **** SMEAR **** FERMI SMEARING ACTIVE
 FERMI SMEARING - TEMPERATURE SMEARING OF FERMI SURFACE  0.1000E-12
 INFORMATION **** MAXCYCLE **** MAX NUMBER OF SCF CYCLES SET TO         150

 MODIFIED BROYDEN MIXING OF THE FOCK MATRIX
 WO PARAMETER(D.D. Johnson, PRB38, 12807,(1988)             1.0000E-04
 % OF FOCK/KS MATRICES MIXING WHEN BROYDEN METHOD IS ON             90
 NUMBER OF SCF ITERATIONS AFTER WHICH BROYDEN METHOD IS ACTIVE      20
 INFORMATION **** TOLDEE **** SCF TOL ON TOTAL ENERGY SET TO           7
 *******************************************************************************
 N. OF ATOMS PER CELL      148  COULOMB OVERLAP TOL         (T1) 10** -8
 NUMBER OF SHELLS          776  COULOMB PENETRATION TOL     (T2) 10** -8
 NUMBER OF AO             2752  EXCHANGE OVERLAP TOL        (T3) 10** -8
 N. OF ELECTRONS PER CELL 1736  EXCHANGE PSEUDO OVP (F(G))  (T4) 10** -8
 CORE ELECTRONS PER CELL  1032  EXCHANGE PSEUDO OVP (P(G))  (T5) 10**-16
 N. OF SYMMETRY OPERATORS    1  POLE ORDER IN MONO ZONE                4
 *******************************************************************************
 TYPE OF CALCULATION :  UNRESTRICTED OPEN SHELL
 KOHN-SHAM HAMILTONIAN

 (EXCHANGE)[CORRELATION] FUNCTIONAL:(BECKE)[LEE-YANG-PARR]

 NON-LOCAL WEIGHTING FACTOR (EXCHANGE) =           0.9000
 NON-LOCAL WEIGHTING FACTOR [CORRELATION] =        0.8100

 HYBRID EXCHANGE - PERCENTAGE OF FOCK EXCHANGE     5.0000

 SPIN POLARIZED DFT SELECTED

 CAPPA:IS1  2;IS2  2;IS3  2; K PTS MONK NET    8; SYMMOPS: K SPACE  2;G SPACE  1

 *******************************************************************************
 MAX NUMBER OF SCF CYCLES     150  CONVERGENCE ON DELTAP        10**-17
 WEIGHT OF F(I) IN F(I+1)      92% CONVERGENCE ON ENERGY        10**- 7
 SHRINK. FACT.(MONKH.)    2  2  2  NUMBER OF K POINTS IN THE IBZ      8
 SHRINKING FACTOR(GILAT NET)    2  NUMBER OF K POINTS(GILAT NET)      8
 *******************************************************************************
 *** K POINTS COORDINATES (OBLIQUE COORDINATES IN UNITS OF IS =  2)
   1-R(  0  0  0)   2-R(  1  0  0)   3-R(  0  1  0)   4-R(  1  1  0)
   5-R(  0  0  1)   6-R(  1  0  1)   7-R(  0  1  1)   8-R(  1  1  1)

 DIRECT LATTICE VECTORS COMPON. (A.U.)     RECIP. LATTICE VECTORS COMPON. (A.U.) 
        X            Y            Z              X            Y            Z
   20.4846313    0.0000000    0.0000000      0.3067268    0.0000000    0.0000000
    0.0000000   20.4846313    0.0000000      0.0000000    0.3067268    0.0000000
    0.0000000    0.0000000   35.6425026      0.0000000    0.0000000    0.1762835

 DISK SPACE FOR EIGENVECTORS (FTN 10)   60588032 REALS

 SYMMETRY ADAPTION OF THE BLOCH FUNCTIONS DISABLED
 TTTTTTTTTTTTTTTTTTTTTTTTTTTTTT gordsh1     TELAPSE       22.66 TCPU        3.13
[r2i7n3:20584] 15 more processes have sent help message help-opal-shmem-mmap.txt / mmap on nfs
[r2i7n3:20584] Set MCA parameter "orte_base_help_aggregate" to 0 to see all help / error messages
[r2i7n3:20584] 191 more processes have sent help message help-mpi-btl-openib.txt / reg mem limit low

 DIMENSIONS  P(G)= 7100926 F(G)= 1268323 P(G),F(G) (IRR) 3558919
 MAX G-VECTOR INDEX FOR 1- AND 2-ELECTRON INTEGRALS  65

 TTTTTTTTTTTTTTTTTTTTTTTTTTTTTT INPUT       TELAPSE       33.43 TCPU       13.88

 NEIGHBORS OF THE NON-EQUIVALENT ATOMS

 N = NUMBER OF NEIGHBORS AT DISTANCE R
    ATOM  N     R/ANG      R/AU   NEIGHBORS (ATOM LABELS AND CELL INDICES)
   1 O    1     1.5816     2.9888 145 SI   0 0 0
   1 O    1     1.6069     3.0366 121 SI   0 0 0
   1 O    1     2.5699     4.8565   8 O    0 0 0
   1 O    1     2.5820     4.8793  13 O    0 1 0
   1 O    1     2.5910     4.8963  45 O    0 0 0
   1 O    1     2.6085     4.9294   3 O    0 0 0

   2 O    1     1.5882     3.0014 123 SI   0 0 0
   2 O    1     1.6916     3.1968 141 SI   0 0 0
   2 O    1     2.3739     4.4860  20 O    0 0 0
   2 O    1     2.4661     4.6603  29 O    0 0 0
   2 O    1     2.5870     4.8886  14 O    0 0 0
   2 O    1     2.5916     4.8975  15 O    0 0 0

   3 O    1     1.6293     3.0789 121 SI   0 0 0
   3 O    1     1.7435     3.2947 124 SI   1 0 0
   3 O    1     2.0053     3.7894 143 SI   1 0 0
   3 O    1     2.3127     4.3703  53 O    1 0 0
   3 O    1     2.3767     4.4912  48 O    0 0 0
   3 O    1     2.5198     4.7617  24 O    1 0 0

   4 O    1     1.6237     3.0684 125 SI   0 1 0
   4 O    1     1.6557     3.1289 114 SI   0 0 0
   4 O    1     2.5634     4.8442  13 O    0 1 0
   4 O    1     2.6688     5.0434  31 O    0 0 0
   4 O    1     2.8094     5.3091   7 O    0 1 0
   4 O    1     2.9550     5.5841  53 O    0 0 0

   5 O    1     1.6494     3.1169 122 SI   0 0 0
   5 O    1     1.6633     3.1433 126 SI   0 0 0
   5 O    1     2.5846     4.8842  14 O    0 0 0
   5 O    1     2.6382     4.9854  11 O    0 0 0
   5 O    1     2.6507     5.0091  19 O    0 0 0
   5 O    1     2.6991     5.1006  16 O    0 0 0

   6 O    1     1.6192     3.0599 127 SI   1 0 0
   6 O    1     1.6425     3.1038 124 SI   1-1 0
   6 O    1     2.5781     4.8718  18 O    0 0 0
   6 O    1     2.6122     4.9364  53 O    1-1 0
   6 O    1     2.6320     4.9738  12 O    1 0 0
   6 O    1     2.7676     5.2300  17 O    1 0 0

   7 O    1     1.6141     3.0501 125 SI   0 0 0
   7 O    1     1.7734     3.3513 134 SI   0 0 0
   7 O    1     2.6128     4.9375  13 O    0 0 0
   7 O    1     2.6460     5.0003  31 O    0-1 0
   7 O    1     2.7752     5.2443  29 O    0 0 0
   7 O    1     2.7775     5.2487  16 O    0 0 0

   8 O    1     1.6143     3.0506 121 SI   0 0 0
   8 O    1     1.7255     3.2607 102 SI   0 0-1
   8 O    1     2.5699     4.8565   1 O    0 0 0
   8 O    1     2.5744     4.8648   3 O    0 0 0
   8 O    1     2.6504     5.0085  19 O    0 0 0
   8 O    1     2.8319     5.3515 101 SI   0 0-1

   9 O    1     1.6603     3.1376 128 SI   0 0 0
   9 O    1     1.6685     3.1531 108 SI  -1 0 0
   9 O    1     2.6028     4.9186  33 O    0 0 0
   9 O    1     2.6214     4.9538  18 O   -1 0 0
   9 O    1     2.7360     5.1703  17 O    0 0 0
   9 O    1     2.9863     5.6433 113 SI   0 0 0

  10 O    1     1.6127     3.0475 122 SI   0 0 0
  10 O    1     1.6573     3.1318 132 SI   0 0 0
  10 O    1     2.6251     4.9608  26 O    0 0 0
  10 O    1     2.6316     4.9730  33 O    0 0 0
  10 O    1     2.6341     4.9777  11 O    0 0 0
  10 O    1     2.7432     5.1840  16 O    0 0 0

  11 O    1     1.6456     3.1097 122 SI   0 0 0
  11 O    1     1.6457     3.1100 101 SI   0 0-1
  11 O    1     2.6341     4.9777  10 O    0 0 0
  11 O    1     2.6382     4.9854   5 O    0 0 0
  11 O    1     2.6566     5.0202  16 O    0 0 0
  11 O    1     2.9377     5.5514  14 O    0 0 0

  12 O    1     1.5704     2.9675 127 SI   0 0 0
  12 O    1     1.7511     3.3091 135 SI   0 0 0
  12 O    1     2.3380     4.4183  36 O   -1 0 0
  12 O    1     2.4287     4.5895  50 O    0 0 0
  12 O    1     2.6320     4.9738   6 O   -1 0 0
  12 O    1     2.7028     5.1076  17 O    0 0 0

  13 O    1     1.5791     2.9841 145 SI   0-1 0
  13 O    1     1.6385     3.0964 125 SI   0 0 0
  13 O    1     2.4838     4.6937  28 O    0 0 0
  13 O    1     2.5315     4.7838  31 O    0-1 0
  13 O    1     2.5634     4.8442   4 O    0-1 0
  13 O    1     2.5820     4.8793   1 O    0-1 0

  14 O    1     1.6455     3.1095 126 SI   0 0 0
  14 O    1     1.6679     3.1520 123 SI   0 0 0
  14 O    1     2.5327     4.7860  16 O    0 0 0
  14 O    1     2.5784     4.8725  18 O    0 0 0
  14 O    1     2.5846     4.8842   5 O    0 0 0
  14 O    1     2.5870     4.8886   2 O    0 0 0

  15 O    1     1.6080     3.0388 123 SI   0 0 0
  15 O    1     1.6658     3.1480 107 SI   0 0-1
  15 O    1     2.5916     4.8975   2 O    0 0 0
  15 O    1     2.6827     5.0696  14 O    0 0 0
  15 O    1     2.6830     5.0702  13 O    0 0 0
  15 O    1     2.9235     5.5246  16 O    0 0 0

  16 O    1     1.6778     3.1707 122 SI   0 0 0
  16 O    1     1.7014     3.2153 123 SI   0 0 0
  16 O    1     2.5133     4.7494 120 SI   0 0-1
  16 O    1     2.5327     4.7860  14 O    0 0 0
  16 O    1     2.6566     5.0202  11 O    0 0 0
  16 O    1     2.6950     5.0928   2 O    0 0 0

  17 O    1     1.7436     3.2949 127 SI   0 0 0
  17 O    1     1.8425     3.4819 119 SI   0 0-1
  17 O    1     1.9001     3.5906 128 SI   0 0 0
  17 O    1     2.6069     4.9263  18 O   -1 0 0
  17 O    1     2.7028     5.1076  12 O    0 0 0
  17 O    1     2.7277     5.1547  33 O    0 0 0

  18 O    1     1.6372     3.0939 127 SI   1 0 0
  18 O    1     1.6644     3.1452 108 SI   0 0 0
  18 O    1     2.5781     4.8718   6 O    0 0 0
  18 O    1     2.5784     4.8725  14 O    0 0 0
  18 O    1     2.6069     4.9263  17 O    1 0 0
  18 O    1     2.6214     4.9538   9 O    1 0 0

  19 O    1     1.5892     3.0032 121 SI   0 0 0
  19 O    1     1.6187     3.0589 126 SI   0 0 0
  19 O    1     2.5700     4.8566  47 O    0 0 0
  19 O    1     2.5956     4.9049  14 O    0 0 0
  19 O    1     2.6367     4.9826   3 O    0 0 0
  19 O    1     2.6504     5.0085   8 O    0 0 0

  20 O    1     1.6128     3.0478 131 SI   0 0 0
  20 O    1     1.7588     3.3237 141 SI   0 0 0
  20 O    1     2.3739     4.4860   2 O    0 0 0
  20 O    1     2.4094     4.5531  41 O    0 0 0
  20 O    1     2.5181     4.7585  52 O    0 0 0
  20 O    1     2.6274     4.9651  36 O    0 0 0

  21 O    1     1.6350     3.0897 140 SI   0 0 0
  21 O    1     1.6501     3.1182 138 SI   0 0 0
  21 O    1     2.5856     4.8861  46 O    0 0 0
  21 O    1     2.5884     4.8913  44 O    0 0 0
  21 O    1     2.7241     5.1478  22 O    0 0 0
  21 O    1     2.7303     5.1595  38 O    0 0 0

  22 O    1     1.7218     3.2538 138 SI   0 0 0
  22 O    1     1.7361     3.2807  74 SI   0 0 0
  22 O    1     2.3299     4.4028 130 SI   0 1 0
  22 O    1     2.6222     4.9553  38 O    0 0 0
  22 O    1     2.7241     5.1478  21 O    0 0 0
  22 O    1     2.7257     5.1508  54 O    0 1 0

  23 O    1     1.5976     3.0191 129 SI   0 0 0
  23 O    1     1.6673     3.1507 131 SI   0 0 0
  23 O    1     2.4766     4.6801  47 O    0 0 0
  23 O    1     2.5155     4.7535  36 O    0 0 0
  23 O    1     2.5751     4.8663  42 O    0 0 0
  23 O    1     2.6228     4.9564  56 O    0 0 0

  24 O    1     1.6138     3.0497 132 SI   0 0 0
  24 O    1     1.6425     3.1038 143 SI   0 0 0
  24 O    1     2.5012     4.7267  49 O    0 0 0
  24 O    1     2.5198     4.7617   3 O   -1 0 0
  24 O    1     2.5837     4.8825  33 O    0 0 0
  24 O    1     2.6577     5.0223  26 O    0 0 0

  25 O    1     1.5852     2.9956 133 SI   0 0 0
  25 O    1     1.6155     3.0529 136 SI   0 0 0
  25 O    1     2.5162     4.7548  43 O    0 0 0
  25 O    1     2.5168     4.7560  28 O    0 0 0
  25 O    1     2.5914     4.8971  55 O    0 0 0
  25 O    1     2.5955     4.9048  27 O    0-1 0

  26 O    1     1.6031     3.0294 137 SI   0 0 0
  26 O    1     1.6256     3.0719 132 SI   0 0 0
  26 O    1     2.5694     4.8554  40 O    0 0 0
  26 O    1     2.6251     4.9608  10 O    0 0 0
  26 O    1     2.6292     4.9685  46 O    0 0 0
  26 O    1     2.6360     4.9813  33 O    0 0 0

  27 O    1     1.6236     3.0682 139 SI   0 0 0
  27 O    1     1.6264     3.0735 147 SI   0 0 0
  27 O    1     2.5816     4.8785  28 O    0 1 0
  27 O    1     2.5907     4.8956  48 O    0 0 0
  27 O    1     2.5955     4.9048  25 O    0 1 0
  27 O    1     2.6472     5.0025  56 O    0 0 0

  28 O    1     1.7376     3.2835 145 SI   0-1 0
  28 O    1     1.7769     3.3578 147 SI   0-1 0
  28 O    1     1.8310     3.4601 133 SI   0 0 0
  28 O    1     2.4838     4.6937  13 O    0 0 0
  28 O    1     2.5168     4.7560  25 O    0 0 0
  28 O    1     2.5816     4.8785  27 O    0-1 0

  29 O    1     1.6442     3.1071 134 SI   0 0 0
  29 O    1     1.7199     3.2502 141 SI   0 0 0
  29 O    1     2.4451     4.6206  41 O    0 0 0
  29 O    1     2.4461     4.6225  52 O    0 0 0
  29 O    1     2.4661     4.6603   2 O    0 0 0
  29 O    1     2.7752     5.2443   7 O    0 0 0

  30 O    1     1.6530     3.1236 144 SI   0 0 0
  30 O    1     1.8095     3.4195  82 SI   0 0 0
  30 O    1     2.6242     4.9590  41 O    0 0 0
  30 O    1     2.9921     5.6543  42 O    0 0 0
  30 O    1     3.0716     5.8046  67 SI   0 0 0
  30 O    1     3.1259     5.9071  57 SI   0 0 0

  31 O    1     1.6091     3.0407 125 SI   0 1 0
  31 O    1     1.6182     3.0580 148 SI   0 0 0
  31 O    1     2.5315     4.7838  13 O    0 1 0
  31 O    1     2.5980     4.9096  49 O    0 0 0
  31 O    1     2.6071     4.9268  50 O    0 1 0
  31 O    1     2.6460     5.0003   7 O    0 1 0

  32 O    1     1.5926     3.0096 147 SI   0-1 0
  32 O    1     1.7238     3.2574 135 SI   1 0 0
  32 O    1     2.5497     4.8182  50 O    1 0 0
  32 O    1     2.6301     4.9702  36 O    0 0 0
  32 O    1     2.7120     5.1250  12 O    1 0 0
  32 O    1     2.7498     5.1963  28 O    0 0 0

  33 O    1     1.6235     3.0681 132 SI   0 0 0
  33 O    1     1.6254     3.0715 128 SI   0 0 0
  33 O    1     2.5837     4.8825  24 O    0 0 0
  33 O    1     2.6028     4.9186   9 O    0 0 0
  33 O    1     2.6316     4.9730  10 O    0 0 0
  33 O    1     2.6360     4.9813  26 O    0 0 0

  34 O    1     1.6327     3.0854 129 SI  -1 0 0
  34 O    1     1.7018     3.2159  73 SI   0 0 0
  34 O    1     2.4541     4.6375  56 O   -1 0 0
  34 O    1     2.7042     5.1103  42 O   -1 0 0
  34 O    1     2.8294     5.3467  23 O   -1 0 0
  34 O    1     2.8872     5.4561  36 O   -1 0 0

  35 O    1     1.6274     3.0754  81 SI   0 0 0
  35 O    1     1.6687     3.1533 146 SI   0 0 0
  35 O    1     2.5549     4.8281  37 O    0 0 0
  35 O    1     2.7256     5.1507  43 O   -1 0 0
  35 O    1     3.0545     5.7722  55 O   -1 0 0
  35 O    1     3.2075     6.0614  68 SI  -1 0 0

  36 O    1     1.6117     3.0457 131 SI   0 0 0
  36 O    1     1.6805     3.1757 135 SI   1 0 0
  36 O    1     2.3380     4.4183  12 O    1 0 0
  36 O    1     2.3942     4.5243  37 O    1 0 0
  36 O    1     2.5155     4.7535  23 O    0 0 0
  36 O    1     2.6274     4.9651  20 O    0 0 0

  37 O    1     1.6122     3.0466 146 SI   0 0 0
  37 O    1     1.7605     3.3268 135 SI   0 0 0
  37 O    1     2.3906     4.5176  50 O    0 0 0
  37 O    1     2.3942     4.5243  36 O   -1 0 0
  37 O    1     2.5549     4.8281  35 O    0 0 0
  37 O    1     2.8648     5.4137  32 O   -1 0 0

  38 O    1     1.6399     3.0989 137 SI   0 0 0
  38 O    1     1.6567     3.1306 138 SI   0 0 0
  38 O    1     2.6147     4.9411  46 O    0 0 0
  38 O    1     2.6201     4.9514  40 O    0 0 0
  38 O    1     2.6222     4.9553  22 O    0 0 0
  38 O    1     2.7303     5.1595  21 O    0 0 0

  39 O    1     1.6694     3.1547 142 SI   0 0 0
  39 O    1     1.6895     3.1927 139 SI  -1 0 0
  39 O    1     2.3014     4.3490  56 O   -1 0 0
  39 O    1     2.3832     4.5036  43 O   -1 1 0
  39 O    1     2.5338     4.7882  81 SI   0 1 0
  39 O    1     2.6882     5.0800  27 O   -1 0 0

  40 O    1     1.6132     3.0486 142 SI   0 0 0
  40 O    1     1.6210     3.0633 137 SI   0 0 0
  40 O    1     2.5694     4.8554  26 O    0 0 0
  40 O    1     2.5759     4.8678  49 O    0 0 0
  40 O    1     2.6048     4.9224  56 O   -1 0 0
  40 O    1     2.6201     4.9514  38 O    0 0 0

  41 O    1     1.6160     3.0538 144 SI   0 0 0
  41 O    1     1.7461     3.2996 141 SI   0 0 0
  41 O    1     2.4094     4.5531  20 O    0 0 0
  41 O    1     2.4451     4.6206  29 O    0 0 0
  41 O    1     2.6242     4.9590  30 O    0 0 0
  41 O    1     2.7412     5.1802  42 O    0 0 0

  42 O    1     1.6499     3.1179 129 SI   0 0 0
  42 O    1     1.6919     3.1972 144 SI   0 0 0
  42 O    1     2.5751     4.8663  23 O    0 0 0
  42 O    1     2.7042     5.1103  34 O    1 0 0
  42 O    1     2.7173     5.1349  55 O    0 0 0
  42 O    1     2.7339     5.1662  57 SI   0 0 0

  43 O    1     1.7597     3.3254 136 SI   0 0 0
  43 O    1     1.8100     3.4203  81 SI   1 0 0
  43 O    1     1.8925     3.5764 139 SI   0-1 0
  43 O    1     2.3832     4.5036  39 O    1-1 0
  43 O    1     2.5162     4.7548  25 O    0 0 0
  43 O    1     2.7256     5.1507  35 O    1 0 0

  44 O    1     1.5966     3.0171 133 SI   0 1 0
  44 O    1     1.6128     3.0478 140 SI   0 0 0
  44 O    1     2.5133     4.7494  45 O    0 0 0
  44 O    1     2.5698     4.8562  52 O    0 1 0
  44 O    1     2.5835     4.8820  54 O    0 1 0
  44 O    1     2.5884     4.8913  21 O    0 0 0

  45 O    1     1.6325     3.0849 145 SI   0 0 0
  45 O    1     1.6353     3.0903 140 SI   0 0 0
  45 O    1     2.5133     4.7494  44 O    0 0 0
  45 O    1     2.5910     4.8963   1 O    0 0 0
  45 O    1     2.7262     5.1518  46 O    0 0 0
  45 O    1     2.7406     5.1790   5 O    0 0 0

  46 O    1     1.6246     3.0700 140 SI   0 0 0
  46 O    1     1.6477     3.1137 137 SI   0 0 0
  46 O    1     2.5856     4.8861  21 O    0 0 0
  46 O    1     2.6147     4.9411  38 O    0 0 0
  46 O    1     2.6292     4.9685  26 O    0 0 0
  46 O    1     2.7202     5.1404  31 O    0 0 0

  47 O    1     1.5989     3.0214 126 SI   0 0 0
  47 O    1     1.6443     3.1073 131 SI   0 0 0
  47 O    1     2.4766     4.6801  23 O    0 0 0
  47 O    1     2.5700     4.8566  19 O    0 0 0
  47 O    1     2.6850     5.0738  20 O    0 0 0
  47 O    1     2.6981     5.0986  14 O    0 0 0

  48 O    1     1.6132     3.0484 147 SI   0 0 0
  48 O    1     1.6920     3.1975 143 SI   1 0 0
  48 O    1     2.3767     4.4912   3 O    0 0 0
  48 O    1     2.4548     4.6389  49 O    1 0 0
  48 O    1     2.5907     4.8956  27 O    0 0 0
  48 O    1     2.6124     4.9366  28 O    0 1 0

  49 O    1     1.6102     3.0428 148 SI   0 0 0
  49 O    1     1.6489     3.1159 143 SI   0 0 0
  49 O    1     2.4548     4.6389  48 O   -1 0 0
  49 O    1     2.5012     4.7267  24 O    0 0 0
  49 O    1     2.5759     4.8678  40 O    0 0 0
  49 O    1     2.5883     4.8911  51 O    0 0 0

  50 O    1     1.5968     3.0176 148 SI   0-1 0
  50 O    1     1.7094     3.2302 135 SI   0 0 0
  50 O    1     2.3906     4.5176  37 O    0 0 0
  50 O    1     2.4287     4.5895  12 O    0 0 0
  50 O    1     2.5497     4.8182  32 O   -1 0 0
  50 O    1     2.6071     4.9268  31 O    0-1 0

  51 O    1     1.6223     3.0657 148 SI   0 0 0
  51 O    1     1.6233     3.0676 130 SI   0 1 0
  51 O    1     2.5883     4.8911  49 O    0 0 0
  51 O    1     2.6509     5.0094  31 O    0 0 0
  51 O    1     2.6683     5.0424  54 O    0 1 0
  51 O    1     2.6802     5.0648  44 O    0 0 0

  52 O    1     1.5786     2.9832 133 SI   0 0 0
  52 O    1     1.6888     3.1914 141 SI   0 0 0
  52 O    1     2.4461     4.6225  29 O    0 0 0
  52 O    1     2.5181     4.7585  20 O    0 0 0
  52 O    1     2.5698     4.8562  44 O    0-1 0
  52 O    1     2.6350     4.9794   2 O    0 0 0

  53 O    1     1.6578     3.1327 124 SI   0 0 0
  53 O    1     1.7025     3.2173 143 SI   0 0 0
  53 O    1     2.3127     4.3703   3 O   -1 0 0
  53 O    1     2.6122     4.9364   6 O   -1 1 0
[...]
  14.0153902  14.0904060  14.0636660  14.0371204  13.9337657  13.5678384
  13.9801007  14.0485395  14.0598894  14.0292747  13.7502396  13.8846455
  12.8320685  12.8960684  12.9428740  13.3197069  12.7138676  13.0017512
  12.7366145  13.3082204  12.7099999  13.2219523  12.8936356  12.8814871
  12.6446296  13.1867506  12.6205993  13.0605959  12.8594936  13.4959076
  12.9505802  12.8468971  12.7972509  13.0837330  12.8147923  13.0587831
  12.9395918  13.3365402  12.7873525  12.7862595
 SUMMED SPIN DENSITY           0.00000000
 TOTAL ATOMIC SPINS  :
   0.0000000   0.0000000   0.0000000   0.0000000   0.0000000   0.0000000
   0.0000000   0.0000000   0.0000000   0.0000000   0.0000000   0.0000000
   0.0000000   0.0000000   0.0000000   0.0000000   0.0000000   0.0000000
   0.0000000   0.0000000   0.0000000   0.0000000   0.0000000   0.0000000
   0.0000000   0.0000000   0.0000000   0.0000000   0.0000000   0.0000000
   0.0000000   0.0000000   0.0000000   0.0000000   0.0000000   0.0000000
   0.0000000   0.0000000   0.0000000   0.0000000   0.0000000   0.0000000
   0.0000000   0.0000000   0.0000000   0.0000000   0.0000000   0.0000000
   0.0000000   0.0000000   0.0000000   0.0000000   0.0000000   0.0000000
   0.0000000   0.0000000   0.0000000   0.0000000   0.0000000   0.0000000
   0.0000000   0.0000000   0.0000000   0.0000000   0.0000000   0.0000000
   0.0000000   0.0000000   0.0000000   0.0000000   0.0000000   0.0000000
   0.0000000   0.0000000   0.0000000   0.0000000   0.0000000   0.0000000
   0.0000000   0.0000000   0.0000000   0.0000000   0.0000000   0.0000000
   0.0000000   0.0000000   0.0000000   0.0000000   0.0000000   0.0000000
   0.0000000   0.0000000   0.0000000   0.0000000   0.0000000   0.0000000
   0.0000000   0.0000000   0.0000000   0.0000000   0.0000000   0.0000000
   0.0000000   0.0000000   0.0000000   0.0000000   0.0000000   0.0000000
   0.0000000   0.0000000   0.0000000   0.0000000   0.0000000   0.0000000
   0.0000000   0.0000000   0.0000000   0.0000000   0.0000000   0.0000000
   0.0000000   0.0000000   0.0000000   0.0000000   0.0000000   0.0000000
   0.0000000   0.0000000   0.0000000   0.0000000   0.0000000   0.0000000
   0.0000000   0.0000000   0.0000000   0.0000000   0.0000000   0.0000000
   0.0000000   0.0000000   0.0000000   0.0000000   0.0000000   0.0000000
   0.0000000   0.0000000   0.0000000   0.0000000
 TTTTTTTTTTTTTTTTTTTTTTTTTTTTTT MOQGAD      TELAPSE     7987.17 TCPU     7777.60
 WARNING **** GENBUD **** COUL. BIPO BUFFER TOO SMALL - TO AVOID I/O SET BIPOSIZE =     2158175
 TTTTTTTTTTTTTTTTTTTTTTTTTTTTTT SHELLX      TELAPSE     8084.00 TCPU     7873.28
 TTTTTTTTTTTTTTTTTTTTTTTTTTTTTT MONMO3      TELAPSE     8093.47 TCPU     7882.73
 NUMERICALLY INTEGRATED DENSITY    868.0000532224    868.0000532224
 TTTTTTTTTTTTTTTTTTTTTTTTTTTTTT NUMDFT      TELAPSE     8100.24 TCPU     7889.49
 CYC  31 ETOT(AU) -3.084472862866E+04 DETOT -9.01E-06 tst  8.77E-08 PX  1.48E-03
 MODIFIED BROYDEN: MIX%=  90 W0=  1.000000000000E-04 W=  8.997092158918E+01
 TTTTTTTTTTTTTTTTTTTTTTTTTTTTTT FDIK        TELAPSE     8205.77 TCPU     7986.65

    ALPHA      ELECTRONS
 INSULATING STATE
 TOP OF VALENCE BANDS -    BAND    868; K    7; EIG -8.6054383E-02 AU
 TOP OF VALENCE BANDS -    BAND    868; K    1; EIG -9.1369836E-02 AU
 BOTTOM OF VIRTUAL BANDS - BAND    869; K    7; EIG -8.3143003E-02 AU
 BOTTOM OF VIRTUAL BANDS - BAND    869; K    1; EIG -8.2593204E-02 AU

    BETA       ELECTRONS
 INSULATING STATE
 TOP OF VALENCE BANDS -    BAND    868; K    7; EIG -8.6054383E-02 AU
 TOP OF VALENCE BANDS -    BAND    868; K    1; EIG -9.1369836E-02 AU
 BOTTOM OF VIRTUAL BANDS - BAND    869; K    7; EIG -8.3143003E-02 AU
 BOTTOM OF VIRTUAL BANDS - BAND    869; K    1; EIG -8.2593204E-02 AU
 TTTTTTTTTTTTTTTTTTTTTTTTTTTTTT PDIG        TELAPSE     8210.12 TCPU     7990.99
 CHARGE NORMALIZATION FACTOR   1.00000000
 TOTAL ATOMIC CHARGES:
   8.5145511   8.5684634   8.7277266   8.6414244   8.4717799   8.5099983
   8.7345679   8.5903732   8.4985574   8.5895223   8.5959283   8.6848210
   8.5269243   8.5627140   8.6037366   8.5756893   8.7575040   8.5656853
   8.5826270   8.6198517   8.4579825   8.6735774   8.5591235   8.5060268
   8.6617385   8.4892640   8.5069954   8.7912593   8.6958692   8.6015175
   8.6472506   8.5256926   8.5152916   8.5325078   8.5370740   8.6123009
   8.6203022   8.4718117   8.6539510   8.4620899   8.5989690   8.6248872
   8.8095937   8.5505149   8.4746484   8.5791283   8.5269733   8.6250976
   8.6519110   8.6974527   8.6366671   8.5141051   8.5570470   8.6324604
   8.4915680   8.9047979  14.1148068  13.9391765  14.0595812  14.0591470
  14.0212208  14.0493919  13.9767828  13.9767722  13.6158875  13.6440893
  13.9323112  14.1554866  14.0070449  14.0213186  13.9892324  14.0028807
  13.7321478  13.6906388  14.0321516  14.0431240  14.0442048  13.9932040
  13.9863941  13.9917183  13.2461453  13.6571041  14.0992358  14.1080861
  14.0633582  13.9921752  13.9867047  13.9858355  13.9918682  14.0128459
  13.9854643  13.9891848  14.0136947  13.9796710  14.0040173  13.9997220
  14.0116101  13.9881128  14.0335746  13.9487109  13.4465785  13.6906310
  14.0512216  14.0157371  14.1038890  14.0507619  13.5927606  13.3690356
  14.0155750  14.0902253  14.0638576  14.0369548  13.9335400  13.5676526
  13.9801948  14.0485874  14.0602582  14.0293724  13.7503421  13.8845072
  12.8318805  12.8958487  12.9426637  13.3194979  12.7137015  13.0014468
  12.7364609  13.3079692  12.7099179  13.2218150  12.8934058  12.8813426
  12.6444430  13.1865295  12.6204984  13.0604700  12.8593110  13.4959324
  12.9502888  12.8466686  12.7970547  13.0834924  12.8145956  13.0587698
  12.9393142  13.3361599  12.7870824  12.7860272
 SUMMED SPIN DENSITY           0.00000000
 TOTAL ATOMIC SPINS  :
   0.0000000   0.0000000   0.0000000   0.0000000   0.0000000   0.0000000
   0.0000000   0.0000000   0.0000000   0.0000000   0.0000000   0.0000000
   0.0000000   0.0000000   0.0000000   0.0000000   0.0000000   0.0000000
   0.0000000   0.0000000   0.0000000   0.0000000   0.0000000   0.0000000
   0.0000000   0.0000000   0.0000000   0.0000000   0.0000000   0.0000000
   0.0000000   0.0000000   0.0000000   0.0000000   0.0000000   0.0000000
   0.0000000   0.0000000   0.0000000   0.0000000   0.0000000   0.0000000
   0.0000000   0.0000000   0.0000000   0.0000000   0.0000000   0.0000000
   0.0000000   0.0000000   0.0000000   0.0000000   0.0000000   0.0000000
   0.0000000   0.0000000   0.0000000   0.0000000   0.0000000   0.0000000
   0.0000000   0.0000000   0.0000000   0.0000000   0.0000000   0.0000000
   0.0000000   0.0000000   0.0000000   0.0000000   0.0000000   0.0000000
   0.0000000   0.0000000   0.0000000   0.0000000   0.0000000   0.0000000
   0.0000000   0.0000000   0.0000000   0.0000000   0.0000000   0.0000000
   0.0000000   0.0000000   0.0000000   0.0000000   0.0000000   0.0000000
   0.0000000   0.0000000   0.0000000   0.0000000   0.0000000   0.0000000
   0.0000000   0.0000000   0.0000000   0.0000000   0.0000000   0.0000000
   0.0000000   0.0000000   0.0000000   0.0000000   0.0000000   0.0000000
   0.0000000   0.0000000   0.0000000   0.0000000   0.0000000   0.0000000
   0.0000000   0.0000000   0.0000000   0.0000000   0.0000000   0.0000000
   0.0000000   0.0000000   0.0000000   0.0000000   0.0000000   0.0000000
   0.0000000   0.0000000   0.0000000   0.0000000   0.0000000   0.0000000
   0.0000000   0.0000000   0.0000000   0.0000000   0.0000000   0.0000000
   0.0000000   0.0000000   0.0000000   0.0000000   0.0000000   0.0000000
   0.0000000   0.0000000   0.0000000   0.0000000
 TTTTTTTTTTTTTTTTTTTTTTTTTTTTTT MOQGAD      TELAPSE     8210.24 TCPU     7991.12
 WARNING **** GENBUD **** COUL. BIPO BUFFER TOO SMALL - TO AVOID I/O SET BIPOSIZE =     2158175
 TTTTTTTTTTTTTTTTTTTTTTTTTTTTTT SHELLX      TELAPSE     8306.29 TCPU     8085.57
 TTTTTTTTTTTTTTTTTTTTTTTTTTTTTT MONMO3      TELAPSE     8316.67 TCPU     8095.94
 NUMERICALLY INTEGRATED DENSITY    868.0000532246    868.0000532246
 TTTTTTTTTTTTTTTTTTTTTTTTTTTTTT NUMDFT      TELAPSE     8323.28 TCPU     8102.53
 CYC  32 ETOT(AU) -3.084472862986E+04 DETOT -1.20E-06 tst  5.61E-09 PX  3.99E-04
 MODIFIED BROYDEN: MIX%=  90 W0=  1.000000000000E-04 W=  2.517248847161E+02
 TTTTTTTTTTTTTTTTTTTTTTTTTTTTTT FDIK        TELAPSE     8430.87 TCPU     8205.25

    ALPHA      ELECTRONS
 INSULATING STATE
 TOP OF VALENCE BANDS -    BAND    868; K    7; EIG -8.6044316E-02 AU
 TOP OF VALENCE BANDS -    BAND    868; K    1; EIG -9.1361308E-02 AU
 BOTTOM OF VIRTUAL BANDS - BAND    869; K    7; EIG -8.3142423E-02 AU
 BOTTOM OF VIRTUAL BANDS - BAND    869; K    1; EIG -8.2594655E-02 AU

    BETA       ELECTRONS
 INSULATING STATE
 TOP OF VALENCE BANDS -    BAND    868; K    7; EIG -8.6044316E-02 AU
 TOP OF VALENCE BANDS -    BAND    868; K    1; EIG -9.1361308E-02 AU
 BOTTOM OF VIRTUAL BANDS - BAND    869; K    7; EIG -8.3142423E-02 AU
 BOTTOM OF VIRTUAL BANDS - BAND    869; K    1; EIG -8.2594655E-02 AU
 TTTTTTTTTTTTTTTTTTTTTTTTTTTTTT PDIG        TELAPSE     8434.15 TCPU     8208.52
 CHARGE NORMALIZATION FACTOR   1.00000000
 TOTAL ATOMIC CHARGES:
   8.5145196   8.5684406   8.7277138   8.6414143   8.4717591   8.5099727
   8.7345678   8.5903694   8.4985773   8.5895012   8.5959695   8.6848071
   8.5268940   8.5626936   8.6036752   8.5756746   8.7574869   8.5656713
   8.5826173   8.6198314   8.4579717   8.6735966   8.5591170   8.5060141
   8.6617272   8.4892465   8.5069931   8.7912369   8.6958896   8.6015528
   8.6472289   8.5256788   8.5152847   8.5325206   8.5370803   8.6122920
   8.6203335   8.4717838   8.6539443   8.4620925   8.5989783   8.6248805
   8.8095762   8.5504972   8.4746488   8.5791114   8.5269578   8.6250821
   8.6518929   8.6974482   8.6366659   8.5140921   8.5570459   8.6324874
   8.4916053   8.9047844  14.1149033  13.9392068  14.0595340  14.0591067
  14.0211963  14.0493440  13.9767453  13.9767088  13.6158886  13.6441047
  13.9324616  14.1554342  14.0070721  14.0212242  13.9891874  14.0028696
  13.7321548  13.6906144  14.0320868  14.0432211  14.0441309  13.9932749
  13.9864281  13.9917482  13.2461370  13.6571640  14.0991831  14.1080420
  14.0633428  13.9921398  13.9867717  13.9859133  13.9918628  14.0127875
  13.9853982  13.9891167  14.0137238  13.9797164  14.0040066  13.9998274
  14.0114551  13.9881095  14.0335087  13.9487811  13.4469797  13.6906585
  14.0511119  14.0156083  14.1037461  14.0505650  13.5919005  13.3690509
  14.0155892  14.0902315  14.0638697  14.0370199  13.9336286  13.5676385
  13.9802727  14.0485442  14.0602979  14.0293579  13.7504353  13.8846163
  12.8319232  12.8958927  12.9426805  13.3195804  12.7137130  13.0014843
  12.7364851  13.3080516  12.7099400  13.2218126  12.8934278  12.8813767
  12.6444737  13.1865465  12.6205084  13.0604785  12.8593364  13.4961787
  12.9503203  12.8466956  12.7970580  13.0835118  12.8146123  13.0589789
  12.9393500  13.3361873  12.7871010  12.7860421
 SUMMED SPIN DENSITY           0.00000000
 TOTAL ATOMIC SPINS  :
   0.0000000   0.0000000   0.0000000   0.0000000   0.0000000   0.0000000
   0.0000000   0.0000000   0.0000000   0.0000000   0.0000000   0.0000000
   0.0000000   0.0000000   0.0000000   0.0000000   0.0000000   0.0000000
   0.0000000   0.0000000   0.0000000   0.0000000   0.0000000   0.0000000
   0.0000000   0.0000000   0.0000000   0.0000000   0.0000000   0.0000000
   0.0000000   0.0000000   0.0000000   0.0000000   0.0000000   0.0000000
   0.0000000   0.0000000   0.0000000   0.0000000   0.0000000   0.0000000
   0.0000000   0.0000000   0.0000000   0.0000000   0.0000000   0.0000000
   0.0000000   0.0000000   0.0000000   0.0000000   0.0000000   0.0000000
   0.0000000   0.0000000   0.0000000   0.0000000   0.0000000   0.0000000
   0.0000000   0.0000000   0.0000000   0.0000000   0.0000000   0.0000000
   0.0000000   0.0000000   0.0000000   0.0000000   0.0000000   0.0000000
   0.0000000   0.0000000   0.0000000   0.0000000   0.0000000   0.0000000
   0.0000000   0.0000000   0.0000000   0.0000000   0.0000000   0.0000000
   0.0000000   0.0000000   0.0000000   0.0000000   0.0000000   0.0000000
   0.0000000   0.0000000   0.0000000   0.0000000   0.0000000   0.0000000
   0.0000000   0.0000000   0.0000000   0.0000000   0.0000000   0.0000000
   0.0000000   0.0000000   0.0000000   0.0000000   0.0000000   0.0000000
   0.0000000   0.0000000   0.0000000   0.0000000   0.0000000   0.0000000
   0.0000000   0.0000000   0.0000000   0.0000000   0.0000000   0.0000000
   0.0000000   0.0000000   0.0000000   0.0000000   0.0000000   0.0000000
   0.0000000   0.0000000   0.0000000   0.0000000   0.0000000   0.0000000
   0.0000000   0.0000000   0.0000000   0.0000000   0.0000000   0.0000000
   0.0000000   0.0000000   0.0000000   0.0000000   0.0000000   0.0000000
   0.0000000   0.0000000   0.0000000   0.0000000
 TTTTTTTTTTTTTTTTTTTTTTTTTTTTTT MOQGAD      TELAPSE     8434.30 TCPU     8208.67
 WARNING **** GENBUD **** COUL. BIPO BUFFER TOO SMALL - TO AVOID I/O SET BIPOSIZE =     2158175
 TTTTTTTTTTTTTTTTTTTTTTTTTTTTTT SHELLX      TELAPSE     8529.67 TCPU     8303.05
 TTTTTTTTTTTTTTTTTTTTTTTTTTTTTT MONMO3      TELAPSE     8540.89 TCPU     8314.25
 NUMERICALLY INTEGRATED DENSITY    868.0000532241    868.0000532241
 TTTTTTTTTTTTTTTTTTTTTTTTTTTTTT NUMDFT      TELAPSE     8547.50 TCPU     8320.85
 CYC  33 ETOT(AU) -3.084472862993E+04 DETOT -7.06E-08 tst  6.00E-09 PX  3.84E-04
 MODIFIED BROYDEN: MIX%=  90 W0=  1.000000000000E-04 W=  4.081536289061E+02
 TTTTTTTTTTTTTTTTTTTTTTTTTTTTTT FDIK        TELAPSE     8647.14 TCPU     8414.08

    ALPHA      ELECTRONS
 INSULATING STATE
 TOP OF VALENCE BANDS -    BAND    868; K    7; EIG -8.6048813E-02 AU
 TOP OF VALENCE BANDS -    BAND    868; K    1; EIG -9.1364791E-02 AU
 BOTTOM OF VIRTUAL BANDS - BAND    869; K    7; EIG -8.3141977E-02 AU
 BOTTOM OF VIRTUAL BANDS - BAND    869; K    1; EIG -8.2593471E-02 AU

    BETA       ELECTRONS
 INSULATING STATE
 TOP OF VALENCE BANDS -    BAND    868; K    7; EIG -8.6048813E-02 AU
 TOP OF VALENCE BANDS -    BAND    868; K    1; EIG -9.1364791E-02 AU
 BOTTOM OF VIRTUAL BANDS - BAND    869; K    7; EIG -8.3141977E-02 AU
 BOTTOM OF VIRTUAL BANDS - BAND    869; K    1; EIG -8.2593471E-02 AU
 TTTTTTTTTTTTTTTTTTTTTTTTTTTTTT PDIG        TELAPSE     8650.41 TCPU     8417.35
 CHARGE NORMALIZATION FACTOR   1.00000000
 TOTAL ATOMIC CHARGES:
   8.5145106   8.5684301   8.7276969   8.6414151   8.4717465   8.5099685
   8.7345639   8.5903655   8.4985684   8.5894888   8.5959560   8.6847990
   8.5268858   8.5626806   8.6037050   8.5756576   8.7574723   8.5656765
   8.5826018   8.6198215   8.4579535   8.6735893   8.5591065   8.5060034
   8.6617165   8.4892371   8.5069844   8.7912235   8.6958936   8.6015442
   8.6472124   8.5256737   8.5152804   8.5325221   8.5370813   8.6122870
   8.6203299   8.4717676   8.6539433   8.4620854   8.5989727   8.6248584
   8.8095685   8.5504844   8.4746379   8.5790983   8.5269454   8.6250713
   8.6518831   8.6974414   8.6366573   8.5140849   8.5570393   8.6324869
   8.4916057   8.9047721  14.1148470  13.9391746  14.0595205  14.0590759
  14.0212022  14.0493222  13.9767659  13.9767376  13.6158847  13.6441008
  13.9323671  14.1554312  14.0070911  14.0212292  13.9892111  14.0028611
  13.7321628  13.6906055  14.0320724  14.0431695  14.0441228  13.9932793
  13.9864272  13.9917770  13.2461557  13.6571427  14.0991959  14.1080476
  14.0633575  13.9921664  13.9868173  13.9859480  13.9918612  14.0127907
  13.9854415  13.9891235  14.0137056  13.9797105  14.0040373  13.9998400
  14.0114687  13.9880629  14.0335246  13.9487529  13.4468824  13.6906527
  14.0511051  14.0156380  14.1037996  14.0506284  13.5923042  13.3690579
  14.0155802  14.0901983  14.0638145  14.0369503  13.9336092  13.5676582
  13.9802271  14.0485638  14.0602599  14.0293604  13.7504302  13.8845921
  12.8319445  12.8959119  12.9426990  13.3195974  12.7137291  13.0015068
  12.7364993  13.3080605  12.7099472  13.2218283  12.8934442  12.8813927
  12.6444943  13.1865551  12.6205124  13.0604904  12.8593537  13.4961185
  12.9503409  12.8467141  12.7970590  13.0835338  12.8146216  13.0589222
  12.9393766  13.3362128  12.7871219  12.7860567
 SUMMED SPIN DENSITY           0.00000000
 TOTAL ATOMIC SPINS  :
   0.0000000   0.0000000   0.0000000   0.0000000   0.0000000   0.0000000
   0.0000000   0.0000000   0.0000000   0.0000000   0.0000000   0.0000000
   0.0000000   0.0000000   0.0000000   0.0000000   0.0000000   0.0000000
   0.0000000   0.0000000   0.0000000   0.0000000   0.0000000   0.0000000
   0.0000000   0.0000000   0.0000000   0.0000000   0.0000000   0.0000000
   0.0000000   0.0000000   0.0000000   0.0000000   0.0000000   0.0000000
   0.0000000   0.0000000   0.0000000   0.0000000   0.0000000   0.0000000
   0.0000000   0.0000000   0.0000000   0.0000000   0.0000000   0.0000000
   0.0000000   0.0000000   0.0000000   0.0000000   0.0000000   0.0000000
   0.0000000   0.0000000   0.0000000   0.0000000   0.0000000   0.0000000
   0.0000000   0.0000000   0.0000000   0.0000000   0.0000000   0.0000000
   0.0000000   0.0000000   0.0000000   0.0000000   0.0000000   0.0000000
   0.0000000   0.0000000   0.0000000   0.0000000   0.0000000   0.0000000
   0.0000000   0.0000000   0.0000000   0.0000000   0.0000000   0.0000000
   0.0000000   0.0000000   0.0000000   0.0000000   0.0000000   0.0000000
   0.0000000   0.0000000   0.0000000   0.0000000   0.0000000   0.0000000
   0.0000000   0.0000000   0.0000000   0.0000000   0.0000000   0.0000000
   0.0000000   0.0000000   0.0000000   0.0000000   0.0000000   0.0000000
   0.0000000   0.0000000   0.0000000   0.0000000   0.0000000   0.0000000
   0.0000000   0.0000000   0.0000000   0.0000000   0.0000000   0.0000000
   0.0000000   0.0000000   0.0000000   0.0000000   0.0000000   0.0000000
   0.0000000   0.0000000   0.0000000   0.0000000   0.0000000   0.0000000
   0.0000000   0.0000000   0.0000000   0.0000000   0.0000000   0.0000000
   0.0000000   0.0000000   0.0000000   0.0000000   0.0000000   0.0000000
   0.0000000   0.0000000   0.0000000   0.0000000
 TTTTTTTTTTTTTTTTTTTTTTTTTTTTTT MOQGAD      TELAPSE     8650.58 TCPU     8417.52
 WARNING **** GENBUD **** COUL. BIPO BUFFER TOO SMALL - TO AVOID I/O SET BIPOSIZE =     2158175
 TTTTTTTTTTTTTTTTTTTTTTTTTTTTTT SHELLX      TELAPSE     8747.55 TCPU     8514.31
 +++ ENERGIES IN A.U. +++
 ::: EXT EL-POLE                                  -4.7551748030392E+04
 ::: EXT EL-SPHEROPOLE                             3.3805443891360E+02
 ::: BIELET ZONE E-E                               5.6640950749854E+04
 ::: TOTAL E-E                                     9.4272571583757E+03
 ::: TOTAL E-N + N-E                              -6.3297116760317E+04
 ::: TOTAL N-N                                    -5.4304965354485E+03
 ::: KINETIC ENERGY                                3.0745537767659E+04
 ::: PSEUDO TOTAL   ENERGY                        -2.8554818369731E+04
 ::: VIRIAL COEFFICIENT                            1.0369427696666E+00
 TTTTTTTTTTTTTTTTTTTTTTTTTTTTTT MONMO3      TELAPSE     8756.46 TCPU     8523.17
 NUMERICALLY INTEGRATED DENSITY    868.0000532239    868.0000532239
 TTTTTTTTTTTTTTTTTTTTTTTTTTTTTT NUMDFT      TELAPSE     8763.41 TCPU     8530.12
 CYC  34 ETOT(AU) -3.084472863008E+04 DETOT -1.47E-07 tst  1.31E-09 PX  3.84E-04

 == SCF ENDED - CONVERGENCE ON ENERGY      E(AU) -3.0844728630078E+04 CYCLES  34


 ENERGY EXPRESSION=HARTREE+FOCK EXCH*0.05000+(BECKE  EXCH)*0.95000+LYP    CORR

 FINITE TEMPERATURE DFT CALCULATION 
 TEMPERATURE      (T)    1.000000000000E-13 HARTREE 
 ENERGY           (E)   -3.084472863008E+04
 FREE ENERGY      (F)   -3.084472863008E+04
 ELECTRON ENTROPY (S)    0.000000000000E+00
 (E(T)+F(T))/2    (E0)  -3.084472863008E+04


 TOTAL ENERGY(DFT)(AU)( 34) -3.0844728630078E+04 DE-1.5E-07 tester 1.3E-09
 TTTTTTTTTTTTTTTTTTTTTTTTTTTTTT EDFT        TELAPSE     8764.23 TCPU     8530.94
 EIGENVECTORS IN FORTRAN UNIT  8
 TTTTTTTTTTTTTTTTTTTTTTTTTTTTTT END         TELAPSE     8809.57 TCPU     8576.10
 EEEEEEEEEE TERMINATION  DATE 05 09 2014 TIME 08:20:27.7
NODE    0 CPU TIME =      8576.096
    TOTAL CPU TIME =   1633357.338
