
         
 *******************************************************************************
 *                                                                             *
 *                                CRYSTAL09                                    *
 *                              public : 2.0                                   *
 *                      December 10th, 2012 - sequential executable            *
 *                                                                             *
 *                                                                             *
 *                                                                             *
 *                              MAIN AUTHORS                                   *
 *                                                                             *
 *    R. DOVESI(1,10), V.R. SAUNDERS(2), C. ROETTI(1,10), R. ORLANDO (1,3),    *
 *  C.M. ZICOVICH-WILSON(1,4), F. PASCALE(5), B. CIVALLERI(1,10), K. DOLL(6),  *
 *       N.M. HARRISON(2,7), I. J. BUSH(2), Ph. D'ARCO(8), M. LLUNELL(9)       *
 *                                                                             *
 * (1) THEORETICAL CHEMISTRY GROUP - UNIVERSITA' DI TORINO - TORINO (ITALY)    *
 *      http://www.crystal.unito.it                                            *
 * (2) COMPUTATIONAL SCIENCE & ENGINEERING DEPARTMENT - CCLRC DARESBURY (UK)   *
 *     http://www.cse.clrc.ac.uk/cmg/CRYSTAL/                                  *
 * (3) UNIVERSITA' DEL PIEMONTE ORIENTALE - ALESSANDRIA (ITALY)                *
 * (4) UNIVERSIDAD AUTONOMA DEL ESTADO DE MORELOS - CUERNAVACA (MEXICO)        *
 * (5) UNIVERSITE' HENRI POINCARE' - NANCY (FRANCE)                            *
 * (6) MPI FUER FESTKOERPERFORSCHUNG - STUTTGART (GERMANY)                     *
 * (7) IMPERIAL COLLEGE - LONDON (UK)                                          *
 * (8) UNIVERSITE' PIERRE ET MARIE CURIE - PARIS (FRANCE)                      *
 * (9) UNIVERSIDAD DE BARCELONA - BARCELONA (SPAIN)                            *
 *(10) NIS - NANOSTRUCTURED INTERFACES AND SURFACES - TORINO (ITALY)           *
 *     http://www.crystal.unito.it                                             *
 *******************************************************************************
 EEEEEEEEEE STARTING  DATE 11 05 2015 TIME 11:54:04.8

 *******************************************************************************
 Created with astools                                                            
 CRYSTAL - PROPERTIES - TYPE OF CALCULATION :  UNRESTRICTED OPEN SHELL
 *******************************************************************************
 SPIN POLARIZED SYSTEM: SUMMED SPIN DENSITY    2.00000000

 KOHN-SHAM HAMILTONIAN

 (EXCHANGE)[CORRELATION] FUNCTIONAL:(BECKE)[LEE-YANG-PARR]

 NON-LOCAL WEIGHTING FACTOR (EXCHANGE) =           0.9000
 NON-LOCAL WEIGHTING FACTOR [CORRELATION] =        0.8100

 HYBRID EXCHANGE - PERCENTAGE OF FOCK EXCHANGE     5.0000

 SPIN POLARIZED DFT SELECTED

 DIRECT LATTICE VECTOR COMPONENTS (ANGSTROM)
        11.07140    0.00000    0.00000
         0.00000   10.48440    0.00000
         0.00000    0.00000   20.87130

 LATTICE PARAMETERS  (ANGSTROM AND DEGREES) - PRIMITIVE CELL
       A          B          C         ALPHA      BETA     GAMMA        VOLUME
   11.07140   10.48440   20.87130     47.6259   47.6259   47.6259    2422.67760
 *******************************************************************************
 N. OF ATOMS PER CELL      148  COULOMB OVERLAP TOL         (T1) 10** -8
 NUMBER OF SHELLS          776  COULOMB PENETRATION TOL     (T2) 10** -8
 NUMBER OF AO             2752  EXCHANGE OVERLAP TOL        (T3) 10** -8
 N. OF ELECTRONS PER CELL 1736  EXCHANGE PSEUDO OVP (F(G))  (T4) 10** -8
 CORE ELECTRONS PER CELL  1032  EXCHANGE PSEUDO OVP (P(G))  (T5) 10**-16
 N. OF SYMMETRY OPERATORS    1  POLE ORDER IN MONO ZONE                4
 *******************************************************************************
   ATOM N.AT.  SHELL    X(A)      Y(A)      Z(A)      EXAD       N.ELECT.
 *******************************************************************************
    1    8 O     4     2.754     3.877    -7.606   1.900E-01       8.604
    2    8 O     4     5.187     3.846    -8.224   1.900E-01       8.700
    3    8 O     4    -1.567     4.370    -9.163   1.900E-01       8.719
    4    8 O     4     1.633     0.485    -7.705   1.900E-01       8.458
    5    8 O     4    -4.690    -3.882    -9.531   1.900E-01       8.669
    6    8 O     4    -1.515    -3.676    -7.738   1.900E-01       8.860
    7    8 O     4     3.515     3.375   -10.129   1.900E-01       8.801
    8    8 O     4    -2.715     1.481    10.293   1.900E-01       8.845
    9    8 O     4    -1.092     0.241    -6.858   1.900E-01       8.743
   10    8 O     4    -0.664     0.363    -9.380   1.900E-01       8.781
   11    8 O     4    -4.556    -2.463    -7.093   1.900E-01       8.557
   12    8 O     4     3.145    -1.506    -8.063   1.900E-01       8.637
   13    8 O     4     2.150    -3.488    -9.639   1.900E-01       8.584
   14    8 O     4    -0.509    -3.976   -10.065   1.900E-01       8.607
   15    8 O     4     0.490    -1.873    -8.236   1.900E-01       8.766
   16    8 O     4    -2.973    -2.309    -9.553   1.900E-01       8.756
   17    8 O     4    -5.532    -1.230    -9.397   1.900E-01       8.616
   18    8 O     4     3.949     1.397    -8.216   1.900E-01       8.608
   19    8 O     4     2.768    -1.673    -4.271   1.900E-01       8.637
   20    8 O     4     1.369     2.592    -2.919   1.900E-01       8.551
   21    8 O     4     2.054    -3.905    -7.173   1.900E-01       8.607
   22    8 O     4    -0.840     4.725    -0.022   1.900E-01       8.644
   23    8 O     4     3.417     0.758    -3.461   1.900E-01       8.622
   24    8 O     4    -3.922     2.227    -6.586   1.900E-01       8.573
   25    8 O     4     1.734    -4.341    -2.543   1.900E-01       8.538
   26    8 O     4    -2.530     0.482    -4.378   1.900E-01       8.680
   27    8 O     4     3.931     4.123    -3.362   1.900E-01       8.581
   28    8 O     4     2.545     5.170    -5.237   1.900E-01       8.855
   29    8 O     4     0.808    -1.100    -5.867   1.900E-01       8.698
   30    8 O     4    -0.603    -1.108    -0.616   1.900E-01       8.686
   31    8 O     4    -1.783    -4.486    -5.317   1.900E-01       8.752
   32    8 O     4     4.710    -4.054    -4.374   1.900E-01       8.603
   33    8 O     4    -2.145    -1.777    -5.563   1.900E-01       8.603
   34    8 O     4    -5.073     1.225    -0.788   1.900E-01       8.733
   35    8 O     4     5.259    -1.103    -0.007   1.900E-01       8.695
   36    8 O     4     5.373    -1.482    -4.441   1.900E-01       8.586
   37    8 O     4    -5.346    -2.689    -2.158   1.900E-01       8.576
   38    8 O     4    -1.111     0.916    -2.135   1.900E-01       8.573
   39    8 O     4    -5.239     4.039    -0.972   1.900E-01       8.698
   40    8 O     4    -3.353     2.184    -2.462   1.900E-01       8.661
   41    8 O     4     0.420    -0.945    -3.204   1.900E-01       8.659
   42    8 O     4     1.482     0.563    -1.317   1.900E-01       8.781
   43    8 O     4     3.722    -5.119    -1.119   1.900E-01       8.644
   44    8 O     4     0.309     4.613    -4.217   1.900E-01       8.583
   45    8 O     4     1.140     2.322    -5.540   1.900E-01       8.596
   46    8 O     4    -1.152     2.675    -4.017   1.900E-01       8.598
   47    8 O     4     3.904    -0.010    -6.008   1.900E-01       8.598
   48    8 O     4     5.206     4.130    -5.728   1.900E-01       8.596
   49    8 O     4     0.245     4.710    -7.226   1.900E-01       8.643
   50    8 O     4    -3.517     4.197    -4.733   1.900E-01       8.684
   51    8 O     4    -3.834    -3.695    -4.005   1.900E-01       8.658
   52    8 O     4    -2.099    -5.233    -2.632   1.900E-01       8.662
   53    8 O     4     0.694    -3.261    -4.560   1.900E-01       8.645
   54    8 O     4    -3.720     4.751    -7.484   1.900E-01       8.751
   55    8 O     4     3.128    -2.449    -0.890   1.900E-01       8.690
   56    8 O     4     3.285     2.651    -1.214   1.900E-01       8.774
   57   14 SI    6     1.286     1.024     0.721   6.000E-01      13.782
   58   14 SI    6     2.915     2.702     0.712   6.000E-01      13.706
   59   14 SI    6     2.019     4.540     1.915   6.000E-01      13.953
   60   14 SI    6     4.690     1.813     1.963   6.000E-01      14.049
   61   14 SI    6     0.602     3.234     3.232   6.000E-01      14.042
   62   14 SI    6     3.323     0.568     3.374   6.000E-01      14.048
   63   14 SI    6     1.921     1.945     4.662   6.000E-01      13.983
   64   14 SI    6     4.757     4.464     4.670   6.000E-01      13.998
   65   14 SI    6     1.041    -4.191     0.797   6.000E-01      13.827
   66   14 SI    6     2.884    -2.681     0.861   6.000E-01      13.701
   67   14 SI    6     2.034    -0.781     1.957   6.000E-01      13.980
   68   14 SI    6     4.850    -3.600     1.768   6.000E-01      13.998
   69   14 SI    6     0.529    -1.936     3.328   6.000E-01      14.039
   70   14 SI    6     3.444    -4.693     3.303   6.000E-01      14.067
   71   14 SI    6     1.979    -3.304     4.585   6.000E-01      13.980
   72   14 SI    6     4.833    -0.754     4.553   6.000E-01      13.989
   73   14 SI    6    -5.180     0.326     0.583   6.000E-01      13.223
   74   14 SI    6    -1.909     3.390     0.473   6.000E-01      13.765
   75   14 SI    6    -3.562     4.492     1.761   6.000E-01      14.106
   76   14 SI    6    -0.656     1.896     1.756   6.000E-01      14.033
   77   14 SI    6    -4.922     3.226     3.203   6.000E-01      13.996
   78   14 SI    6    -2.087     0.682     3.217   6.000E-01      14.009
   79   14 SI    6    -3.512     1.969     4.601   6.000E-01      14.000
   80   14 SI    6    -0.847     4.581     4.555   6.000E-01      13.983
   81   14 SI    6    -4.668    -4.666     0.160   6.000E-01      13.583
   82   14 SI    6    -1.869    -1.866     0.313   6.000E-01      13.548
   83   14 SI    6    -3.384    -0.611     1.750   6.000E-01      14.085
   84   14 SI    6    -0.771    -3.239     1.880   6.000E-01      14.008
   85   14 SI    6    -4.896    -2.032     3.026   6.000E-01      13.995
   86   14 SI    6    -2.220    -4.625     3.131   6.000E-01      13.999
   87   14 SI    6    -3.543    -3.253     4.511   6.000E-01      13.997
   88   14 SI    6    -0.792    -0.589     4.722   6.000E-01      14.003
   89   14 SI    6     0.555     0.755     6.129   6.000E-01      13.988
   90   14 SI    6     3.281     3.229     6.050   6.000E-01      13.976
   91   14 SI    6     0.490    -4.538     5.932   6.000E-01      13.995
   92   14 SI    6     3.347    -1.942     5.943   6.000E-01      13.982
   93   14 SI    6    -4.954     0.665     5.917   6.000E-01      14.000
   94   14 SI    6    -2.167     3.299     6.034   6.000E-01      13.984
   95   14 SI    6    -4.911    -4.587     5.844   6.000E-01      13.995
   96   14 SI    6    -2.247    -1.901     6.005   6.000E-01      14.004
   97   14 SI    6     1.790     4.598     7.312   6.000E-01      14.004
   98   14 SI    6     4.748     1.935     7.332   6.000E-01      13.993
   99   14 SI    6     0.601     3.443     8.995   6.000E-01      14.098
  100   14 SI    6     3.465     0.727     8.880   6.000E-01      14.045
  101   14 SI    6     2.146     2.148    10.258   6.000E-01      13.723
  102   14 SI    6     4.671     4.626     9.907   6.000E-01      13.714
  103   14 SI    6     2.084    -0.512     7.372   6.000E-01      14.052
  104   14 SI    6     4.768    -3.324     7.176   6.000E-01      14.033
  105   14 SI    6     0.732    -1.831     8.723   6.000E-01      14.045
  106   14 SI    6     3.325    -4.586     8.482   6.000E-01      14.055
  107   14 SI    6     2.602    -2.797     9.767   6.000E-01      13.691
  108   14 SI    6     4.529    -1.134    10.074   6.000E-01      13.579
  109   14 SI    6    -3.596     4.658     7.285   6.000E-01      14.027
  110   14 SI    6    -0.799     2.083     7.577   6.000E-01      14.025
  111   14 SI    6    -4.965     3.316     8.585   6.000E-01      14.126
  112   14 SI    6    -2.149     0.591     8.859   6.000E-01      13.671
  113   14 SI    6    -4.367     2.271   -10.296   6.000E-01      13.669
  114   14 SI    6    -0.890     4.940    10.281   6.000E-01      13.287
  115   14 SI    6    -3.618    -0.559     7.394   6.000E-01      14.036
  116   14 SI    6    -0.810    -3.165     7.395   6.000E-01      13.996
  117   14 SI    6    -5.013    -1.995     8.581   6.000E-01      14.067
  118   14 SI    6    -2.255    -4.582     8.694   6.000E-01      14.085
  119   14 SI    6    -3.738    -3.320    10.010   6.000E-01      13.450
  120   14 SI    6    -0.773    -0.789    10.206   6.000E-01      13.568
  121   14 SI    6     3.836     3.018    -8.494   6.000E-01      12.647
  122   14 SI    6     0.363    -0.404    -7.267   6.000E-01      12.759
  123   14 SI    6     2.013    -2.687    -8.250   6.000E-01      12.772
  124   14 SI    6    -4.512     4.371    -9.005   6.000E-01      13.155
  125   14 SI    6    -1.887     1.458    -8.912   6.000E-01      13.000
  126   14 SI    6    -1.418     4.857    -7.568   6.000E-01      12.802
  127   14 SI    6     3.217     0.095    -7.484   6.000E-01      12.671
  128   14 SI    6    -4.606    -2.391    -8.625   6.000E-01      12.978
  129   14 SI    6    -1.201    -2.713    -9.281   6.000E-01      13.016
  130   14 SI    6     2.480     1.573    -2.383   6.000E-01      12.655
  131   14 SI    6    -1.116     4.233    -1.641   6.000E-01      13.355
  132   14 SI    6     3.970    -0.571    -4.459   6.000E-01      12.753
  133   14 SI    6    -2.459    -0.160    -5.886   6.000E-01      12.841
  134   14 SI    6     1.319    -4.674    -4.067   6.000E-01      12.784
  135   14 SI    6    -1.370    -3.101    -6.075   6.000E-01      12.886
  136   14 SI    6    -5.263    -2.958    -3.793   6.000E-01      12.766
  137   14 SI    6     3.156    -3.788    -1.905   6.000E-01      13.182
  138   14 SI    6    -2.079     1.590    -3.274   6.000E-01      12.762
  139   14 SI    6     4.369     3.965    -1.781   6.000E-01      13.032
  140   14 SI    6     0.459     2.935    -4.294   6.000E-01      13.083
  141   14 SI    6     1.165    -1.688    -4.439   6.000E-01      12.659
  142   14 SI    6    -4.914     2.338    -1.973   6.000E-01      13.039
  143   14 SI    6    -4.246     3.693    -6.159   6.000E-01      12.957
  144   14 SI    6    -0.008    -0.198    -1.820   6.000E-01      12.712
  145   14 SI    6     1.815     4.965    -6.911   6.000E-01      12.618
  146   14 SI    6     4.806    -1.352    -1.612   6.000E-01      13.303
  147   14 SI    6     4.258     4.922    -4.730   6.000E-01      12.722
  148   14 SI    6    -2.808    -4.978    -4.091   6.000E-01      12.633
 *******************************************************************************
 DE(K)                   0.000E+00  ENERGY LEVEL SHIFTING        0.00000
 TOTAL ENERGY -3.0844414823329E+04  CONVERGENCE ON ENER       -6.231E-08
 KIN. ENERGY   3.0737750676586E+04  VIR. COEFF.           1.03678476E+00
 N. OF SCF CYCLES              115  FERMI ENERGY              -0.940E-01
 WEIGHT OF F(I) IN F(I+1)      95
 SHRINK. FACT.(MONKH.)     2  2  2  SHRINKING FACTOR(GILAT NET)        2
 NUMBER OF K POINTS IN THE IBZ   8  CELL VOLUME (A.U.)       16349.03907
 *******************************************************************************

 GCALCO - MAX INDICES DIRECT LATTICE VECTOR    18    19     9
 NO.OF VECTORS CREATED 6999 STARS 1059 RMAX   301.31941 BOHR

 DIMENSIONS  P(G)= 6481856 F(G)= 1160186 P(G),F(G) (IRR) 3249384
 MAX G-VECTOR INDEX FOR 1- AND 2-ELECTRON INTEGRALS  43


 CAPPA:IS1  2;IS2  2;IS3  2; K PTS MONK NET    8; SYMMOPS: K SPACE  2;G SPACE  1


 CAPPA:IS1  6;IS2  6;IS3  3; K PTS MONK NET   56; SYMMOPS: K SPACE  2;G SPACE  1

 *******************************************************************************
 RESTART WITH NEW K POINTS NET
 *******************************************************************************
 POINTS IN THE IBZ                  56 POINTS(GILAT NET)                56
 SHRINK FACTORS(MONK.)         6  6  3 SHRINK FACTOR(GILAT)              6
 *******************************************************************************
 *** K POINTS COORDINATES (OBLIQUE COORDINATES IN UNITS OF IS =  6)
   1-R(  0  0  0)   2-C(  1  0  0)   3-C(  2  0  0)   4-R(  3  0  0)
   5-C(  0  1  0)   6-C(  1  1  0)   7-C(  2  1  0)   8-C(  3  1  0)
   9-C(  4  1  0)  10-C(  5  1  0)  11-C(  0  2  0)  12-C(  1  2  0)
  13-C(  2  2  0)  14-C(  3  2  0)  15-C(  4  2  0)  16-C(  5  2  0)
  17-R(  0  3  0)  18-C(  1  3  0)  19-C(  2  3  0)  20-R(  3  3  0)
  21-C(  0  0  1)  22-C(  1  0  1)  23-C(  2  0  1)  24-C(  3  0  1)
  25-C(  4  0  1)  26-C(  5  0  1)  27-C(  0  1  1)  28-C(  1  1  1)
  29-C(  2  1  1)  30-C(  3  1  1)  31-C(  4  1  1)  32-C(  5  1  1)
  33-C(  0  2  1)  34-C(  1  2  1)  35-C(  2  2  1)  36-C(  3  2  1)
  37-C(  4  2  1)  38-C(  5  2  1)  39-C(  0  3  1)  40-C(  1  3  1)
  41-C(  2  3  1)  42-C(  3  3  1)  43-C(  4  3  1)  44-C(  5  3  1)
  45-C(  0  4  1)  46-C(  1  4  1)  47-C(  2  4  1)  48-C(  3  4  1)
  49-C(  4  4  1)  50-C(  5  4  1)  51-C(  0  5  1)  52-C(  1  5  1)
  53-C(  2  5  1)  54-C(  3  5  1)  55-C(  4  5  1)  56-C(  5  5  1)

 FERMI ENERGY AND DENSITY MATRIX CALCULATION ON COMPUTED EIGENVECTORS
 DENSITY MATRIX AT SCF CYCLE (115+1)


    ALPHA      ELECTRONS
 INSULATING STATE
 TOP OF VALENCE BANDS -    BAND    869; K    4; EIG -9.3962061E-02 AU
 TOP OF VALENCE BANDS -    BAND    869; K    1; EIG -9.4867859E-02 AU
 BOTTOM OF VIRTUAL BANDS - BAND    870; K   21; EIG -8.3962767E-02 AU
 BOTTOM OF VIRTUAL BANDS - BAND    870; K    1; EIG -8.3937357E-02 AU

    BETA       ELECTRONS
 INSULATING STATE
 TOP OF VALENCE BANDS -    BAND    867; K   24; EIG -9.4292762E-02 AU
 TOP OF VALENCE BANDS -    BAND    867; K    1; EIG -1.0687526E-01 AU
 BOTTOM OF VIRTUAL BANDS - BAND    868; K   56; EIG -8.2289873E-02 AU
 BOTTOM OF VIRTUAL BANDS - BAND    868; K    1; EIG -9.9861472E-02 AU

 CORE DENSITY MATRIX CALCULATION
 TTTTTTTTTTTTTTTTTTTTTTTTTTTTTT NEWK        TELAPSE   106594.85 TCPU   106424.08
 TTTTTTTTTTTTTTTTTTTTTTTTTTTTTT SETPRINT    TELAPSE   106594.85 TCPU   106424.08

 *******************************************************************************
 HYPERFINE ELECTRON-NUCLEAR SPIN INTERACTION TENSOR
 ANISOTROPIC COMPONENTS - THE TENSOR IS TRACELESS
 *******************************************************************************


 POINT   ATOM  MASS NO  NUCLEAR G FACTOR
    1    1 O      17      -0.7575220

 TENSOR IN ORIGINAL CARTESIAN AXES
 XX  1.528278E-02 YY -7.320289E-03 ZZ -7.962492E-03 XY -4.449583E-03 XZ  4.109837E-03 YZ -1.007475E-03

 TENSOR IN PRINCIPAL AXIS SYSTEM
 AA  1.684695E-02 BB -8.083592E-03 CC -8.763353E-03

 PRINCIPAL AXES
         X             Y             Z
 A  9.682352E-01 -1.852680E-01  1.679176E-01
 B  2.333218E-01  9.108888E-01 -3.403566E-01
 C -8.989710E-02  3.687241E-01  9.251816E-01

 ANGLES BETWEEN PRINCIPAL AXES AND ORIGINAL AXES (DEGREES)
         X             Y             Z
 A     14.479946    100.676759     80.333232
 B     76.507278     24.371538    109.898599
 C     95.157687     68.363052     22.304238


 POINT   ATOM  MASS NO  NUCLEAR G FACTOR
    2    2 O      17      -0.7575220

 TENSOR IN ORIGINAL CARTESIAN AXES
 XX  8.589706E-03 YY -7.167782E-03 ZZ -1.421925E-03 XY  7.062257E-03 XZ  1.293925E-02 YZ  3.910149E-03

 TENSOR IN PRINCIPAL AXIS SYSTEM
 AA  1.984960E-02 BB -9.103155E-03 CC -1.074644E-02

 PRINCIPAL AXES
         X             Y             Z
 A  7.946725E-01  2.852741E-01  5.358305E-01
 B  9.431562E-02  8.139538E-01 -5.732222E-01
 C -5.996668E-01  5.060611E-01  6.199209E-01

 ANGLES BETWEEN PRINCIPAL AXES AND ORIGINAL AXES (DEGREES)
         X             Y             Z
 A     37.375670     73.424767     57.599746
 B     84.588069     35.515949    124.975228
 C    126.846036     59.598184     51.689642


 POINT   ATOM  MASS NO  NUCLEAR G FACTOR
    3    3 O      17      -0.7575220

 TENSOR IN ORIGINAL CARTESIAN AXES
 XX -6.765813E-02 YY -7.961686E-02 ZZ  1.472750E-01 XY  1.042612E-03 XZ  1.515946E-02 YZ -2.737463E-02

 TENSOR IN PRINCIPAL AXIS SYSTEM
 AA -6.813569E-02 BB -8.341239E-02 CC  1.515481E-01

 PRINCIPAL AXES
         X             Y             Z
 A  9.799078E-01  1.944816E-01 -4.424576E-02
 B -1.875147E-01  9.739005E-01  1.278908E-01
 C  6.796337E-02 -1.170244E-01  9.908008E-01

 ANGLES BETWEEN PRINCIPAL AXES AND ORIGINAL AXES (DEGREES)
         X             Y             Z
 A     11.504869     78.785558     92.535923
 B    100.807781     13.119064     82.652275
 C     86.102982     96.720405      7.777602


 POINT   ATOM  MASS NO  NUCLEAR G FACTOR
    4    4 O      17      -0.7575220

 TENSOR IN ORIGINAL CARTESIAN AXES
 XX  1.071758E-02 YY -6.710021E-03 ZZ -4.007555E-03 XY -1.901315E-03 XZ -5.424976E-03 YZ  2.089139E-03

 TENSOR IN PRINCIPAL AXIS SYSTEM
 AA  1.281166E-02 BB -7.916336E-03 CC -4.895319E-03

 PRINCIPAL AXES
         X             Y             Z
 A  9.395172E-01 -1.256039E-01 -3.186394E-01
 B -7.483876E-02  8.325633E-01 -5.488510E-01
 C  3.342253E-01  5.395015E-01  7.728076E-01

 ANGLES BETWEEN PRINCIPAL AXES AND ORIGINAL AXES (DEGREES)
         X             Y             Z
 A     20.029364     97.215634    108.580660
 B     94.291958     33.637037    123.288223
 C     70.474563     57.350286     39.393322


 POINT   ATOM  MASS NO  NUCLEAR G FACTOR
    5    5 O      17      -0.7575220

 TENSOR IN ORIGINAL CARTESIAN AXES
 XX -3.424563E-03 YY  1.853302E-03 ZZ  1.571261E-03 XY -6.461485E-04 XZ  1.209370E-03 YZ -1.321738E-03

 TENSOR IN PRINCIPAL AXIS SYSTEM
 AA -3.723386E-03 BB  3.291722E-03 CC  4.316639E-04

 PRINCIPAL AXES
         X             Y             Z
 A  9.762425E-01  6.405270E-02 -2.069972E-01
 B -1.904529E-01  7.092437E-01 -6.787497E-01
 C  1.033357E-01  7.020475E-01  7.045928E-01

 ANGLES BETWEEN PRINCIPAL AXES AND ORIGINAL AXES (DEGREES)
         X             Y             Z
 A     12.514155     86.327536    101.946436
 B    100.979216     44.826588    132.746014
 C     84.068714     45.408495     45.203340


 POINT   ATOM  MASS NO  NUCLEAR G FACTOR
    6    6 O      17      -0.7575220

 TENSOR IN ORIGINAL CARTESIAN AXES
 XX -3.999373E-02 YY  1.960395E-01 ZZ -1.560458E-01 XY -6.594956E-02 XZ -1.836097E-01 YZ -1.222839E-01

 TENSOR IN PRINCIPAL AXIS SYSTEM
 AA  9.216748E-02 BB  2.346915E-01 CC -3.268590E-01

 PRINCIPAL AXES
         X             Y             Z
 A  8.258920E-01 -1.233280E-01 -5.501750E-01
 B -4.320601E-02  9.590723E-01 -2.798455E-01
 C  5.621704E-01  2.548930E-01  7.867617E-01

 ANGLES BETWEEN PRINCIPAL AXES AND ORIGINAL AXES (DEGREES)
         X             Y             Z
 A     34.320966     97.084212    123.379021
 B     92.476293     16.448966    106.250984
 C     55.793969     75.232753     38.116093


 POINT   ATOM  MASS NO  NUCLEAR G FACTOR
    7    7 O      17      -0.7575220

 TENSOR IN ORIGINAL CARTESIAN AXES
 XX  9.244602E-04 YY -1.164414E-03 ZZ  2.399536E-04 XY -1.558816E-04 XZ  9.285677E-04 YZ -1.913773E-03

 TENSOR IN PRINCIPAL AXIS SYSTEM
 AA  2.172605E-03 BB -2.550180E-03 CC  3.775746E-04

 PRINCIPAL AXES
         X             Y             Z
 A  5.733441E-01 -4.275921E-01  6.988859E-01
 B -1.214478E-01  7.992354E-01  5.886198E-01
 C -8.102635E-01 -4.223599E-01  4.063067E-01

 ANGLES BETWEEN PRINCIPAL AXES AND ORIGINAL AXES (DEGREES)
         X             Y             Z
 A     55.016250    115.314846     45.662309
 B     96.975667     36.942854     53.940873
 C    144.121687    114.983665     66.026960


 POINT   ATOM  MASS NO  NUCLEAR G FACTOR
    8    8 O      17      -0.7575220

 TENSOR IN ORIGINAL CARTESIAN AXES
 XX -3.108753E-03 YY -1.319733E-03 ZZ  4.428486E-03 XY  1.399641E-03 XZ  3.018841E-03 YZ  2.773812E-03

 TENSOR IN PRINCIPAL AXIS SYSTEM
 AA -4.251206E-03 BB -2.426389E-03 CC  6.677595E-03

 PRINCIPAL AXES
         X             Y             Z
 A  9.434227E-01 -2.006277E-01 -2.640117E-01
 B  8.064465E-02  9.111109E-01 -4.041946E-01
 C  3.216365E-01  3.600353E-01  8.757423E-01

 ANGLES BETWEEN PRINCIPAL AXES AND ORIGINAL AXES (DEGREES)
         X             Y             Z
 A     19.365466    101.573667    105.308233
 B     85.374379     24.340671    113.840669
 C     71.238075     68.897638     28.867054


 POINT   ATOM  MASS NO  NUCLEAR G FACTOR
    9    9 O      17      -0.7575220

 TENSOR IN ORIGINAL CARTESIAN AXES
 XX  2.017808E-01 YY -9.721472E-02 ZZ -1.045660E-01 XY  7.373965E-02 XZ -1.274357E-03 YZ -4.876127E-03

 TENSOR IN PRINCIPAL AXIS SYSTEM
 AA  2.189947E-01 BB -1.161332E-01 CC -1.028615E-01

 PRINCIPAL AXES
         X             Y             Z
 A  9.738198E-01  2.272055E-01 -7.259461E-03
 B -2.094171E-01  9.090846E-01  3.601522E-01
 C  8.842802E-02 -3.492031E-01  9.328653E-01

 ANGLES BETWEEN PRINCIPAL AXES AND ORIGINAL AXES (DEGREES)
         X             Y             Z
 A     13.139425     76.867397     90.415940
 B    102.088195     24.620839     68.890458
 C     84.926821    110.438578     21.114035


 POINT   ATOM  MASS NO  NUCLEAR G FACTOR
   10   10 O      17      -0.7575220

 TENSOR IN ORIGINAL CARTESIAN AXES
 XX -3.381720E-03 YY  5.701362E-03 ZZ -2.319641E-03 XY  1.574599E-05 XZ -4.062824E-03 YZ -4.866075E-03

 TENSOR IN PRINCIPAL AXIS SYSTEM
 AA -7.799489E-03 BB  8.284103E-03 CC -4.846141E-04

 PRINCIPAL AXES
         X             Y             Z
 A  6.538919E-01  2.558653E-01  7.120101E-01
 B  1.621478E-01  8.718216E-01 -4.622069E-01
 C -7.390085E-01  4.176842E-01  5.285891E-01

 ANGLES BETWEEN PRINCIPAL AXES AND ORIGINAL AXES (DEGREES)
         X             Y             Z
 A     49.164322     75.175138     44.601300
 B     80.668417     29.328984    117.529605
 C    137.647022     65.311534     58.089827


 POINT   ATOM  MASS NO  NUCLEAR G FACTOR
   11   11 O      17      -0.7575220

 TENSOR IN ORIGINAL CARTESIAN AXES
 XX -2.671243E-02 YY  7.056258E-02 ZZ -4.385015E-02 XY  4.940457E-02 XZ  7.124128E-04 YZ  5.965568E-03

 TENSOR IN PRINCIPAL AXIS SYSTEM
 AA -4.808287E-02 BB  9.150008E-02 CC -4.341721E-02

 PRINCIPAL AXES
         X             Y             Z
 A  8.464513E-01 -3.716396E-01  3.813191E-01
 B  3.854764E-01  9.217313E-01  4.265430E-02
 C -3.673257E-01  1.108847E-01  9.234589E-01

 ANGLES BETWEEN PRINCIPAL AXES AND ORIGINAL AXES (DEGREES)
         X             Y             Z
 A     32.172236    111.816772     67.584588
 B     67.326684     22.819487     87.555347
 C    111.550783     83.633683     22.562891


 POINT   ATOM  MASS NO  NUCLEAR G FACTOR
   12   12 O      17      -0.7575220

 TENSOR IN ORIGINAL CARTESIAN AXES
 XX -7.194559E-04 YY  1.453292E-03 ZZ -7.338364E-04 XY -2.022565E-04 XZ -5.184733E-05 YZ -3.426200E-04

 TENSOR IN PRINCIPAL AXIS SYSTEM
 AA -6.757577E-04 BB  1.522190E-03 CC -8.464326E-04

 PRINCIPAL AXES
         X             Y             Z
 A  8.015892E-01 -2.001021E-02 -5.975402E-01
 B -8.548783E-02  9.853341E-01 -1.476769E-01
 C  5.917318E-01  1.694586E-01  7.881226E-01

 ANGLES BETWEEN PRINCIPAL AXES AND ORIGINAL AXES (DEGREES)
         X             Y             Z
 A     36.717870     91.146577    126.693932
 B     94.904078      9.824796     98.492321
 C     53.719998     80.243658     37.989591


 POINT   ATOM  MASS NO  NUCLEAR G FACTOR
   13   13 O      17      -0.7575220

 TENSOR IN ORIGINAL CARTESIAN AXES
 XX  7.678672E-04 YY  1.323968E-05 ZZ -7.811069E-04 XY  1.397316E-03 XZ  1.053645E-03 YZ -1.322745E-03

 TENSOR IN PRINCIPAL AXIS SYSTEM
 AA  1.838555E-03 BB -2.615468E-03 CC  7.769127E-04

 PRINCIPAL AXES
         X             Y             Z
 A  8.007613E-01  5.986565E-01  1.979280E-02
 B -4.509277E-01  5.807507E-01  6.777852E-01
 C  3.942659E-01 -5.516693E-01  7.349935E-01

 ANGLES BETWEEN PRINCIPAL AXES AND ORIGINAL AXES (DEGREES)
         X             Y             Z
 A     36.797139     53.226263     88.865882
 B    116.803220     54.496640     47.329184
 C     66.779804    123.481610     42.693335


 POINT   ATOM  MASS NO  NUCLEAR G FACTOR
   14   14 O      17      -0.7575220

 TENSOR IN ORIGINAL CARTESIAN AXES
 XX -4.920733E-03 YY  5.294133E-03 ZZ -3.733995E-04 XY -4.787186E-04 XZ  6.970799E-03 YZ -5.572865E-03

 TENSOR IN PRINCIPAL AXIS SYSTEM
 AA -1.055966E-02 BB  1.001677E-02 CC  5.428896E-04

 PRINCIPAL AXES
         X             Y             Z
 A  7.556125E-01 -1.967958E-01 -6.247569E-01
 B -3.039726E-01  7.395243E-01 -6.005868E-01
 C  5.802159E-01  6.437198E-01  4.989732E-01

 ANGLES BETWEEN PRINCIPAL AXES AND ORIGINAL AXES (DEGREES)
         X             Y             Z
 A     40.921087    101.349648    128.664350
 B    107.696363     42.309090    126.911933
 C     54.534271     49.930240     60.067906


 POINT   ATOM  MASS NO  NUCLEAR G FACTOR
   15   15 O      17      -0.7575220

 TENSOR IN ORIGINAL CARTESIAN AXES
 XX  1.058259E-02 YY  1.685777E-02 ZZ -2.744036E-02 XY -1.558489E-02 XZ  3.165773E-02 YZ  2.814892E-02

 TENSOR IN PRINCIPAL AXIS SYSTEM
 AA  2.846136E-02 BB  3.054097E-02 CC -5.900232E-02

 PRINCIPAL AXES
         X             Y             Z
 A  8.888435E-01 -1.231426E-01  4.413538E-01
 B -7.358632E-02  9.123470E-01  4.027505E-01
 C -4.522636E-01 -3.904597E-01  8.018721E-01

 ANGLES BETWEEN PRINCIPAL AXES AND ORIGINAL AXES (DEGREES)
         X             Y             Z
 A     27.271726     97.073504     63.809706
 B     94.220000     24.168264     66.249763
 C    116.889007    112.983108     36.690754


 POINT   ATOM  MASS NO  NUCLEAR G FACTOR
   16   16 O      17      -0.7575220

 TENSOR IN ORIGINAL CARTESIAN AXES
 XX -1.882721E-03 YY -2.299896E-04 ZZ  2.112710E-03 XY  6.641022E-03 XZ -4.741432E-03 YZ  1.096321E-02

 TENSOR IN PRINCIPAL AXIS SYSTEM
 AA -1.507858E-02 BB  3.035488E-03 CC  1.204309E-02

 PRINCIPAL AXES
         X             Y             Z
 A  5.243489E-01 -6.449784E-01  5.559326E-01
 B  8.474453E-01  3.316136E-01 -4.145708E-01
 C  8.303444E-02  6.885022E-01  7.204651E-01

 ANGLES BETWEEN PRINCIPAL AXES AND ORIGINAL AXES (DEGREES)
         X             Y             Z
 A     58.375575    130.164055     56.225025
 B     32.065121     70.633259    114.492293
 C     85.236993     46.488335     43.907107


 POINT   ATOM  MASS NO  NUCLEAR G FACTOR
   17   17 O      17      -0.7575220

 TENSOR IN ORIGINAL CARTESIAN AXES
 XX -8.918232E-04 YY -5.554237E-04 ZZ  1.447247E-03 XY  1.110386E-03 XZ  1.413768E-03 YZ  8.668940E-04

 TENSOR IN PRINCIPAL AXIS SYSTEM
 AA -1.956174E-03 BB -6.688571E-04 CC  2.625031E-03

 PRINCIPAL AXES
         X             Y             Z
 A  8.251933E-01 -5.247097E-01 -2.091311E-01
 B  3.473060E-01  7.633093E-01 -5.447361E-01
 C  4.454601E-01  3.768801E-01  8.121125E-01

 ANGLES BETWEEN PRINCIPAL AXES AND ORIGINAL AXES (DEGREES)
         X             Y             Z
 A     34.391911    121.648702    102.071438
 B     69.677376     40.243184    123.006633
 C     63.547223     67.859438     35.697154


 POINT   ATOM  MASS NO  NUCLEAR G FACTOR
   18   18 O      17      -0.7575220

 TENSOR IN ORIGINAL CARTESIAN AXES
 XX  3.728580E-03 YY -9.619302E-04 ZZ -2.766650E-03 XY -9.368856E-05 XZ  8.473499E-04 YZ -5.131233E-04

 TENSOR IN PRINCIPAL AXIS SYSTEM
 AA  3.842555E-03 BB -8.455720E-04 CC -2.996983E-03

 PRINCIPAL AXES
         X             Y             Z
 A  9.910074E-01 -3.317086E-02  1.296302E-01
 B  6.278904E-02  9.707819E-01 -2.316030E-01
 C -1.181602E-01  2.376596E-01  9.641349E-01

 ANGLES BETWEEN PRINCIPAL AXES AND ORIGINAL AXES (DEGREES)
         X             Y             Z
 A      7.689634     91.900899     82.551778
 B     86.400085     13.884377    103.391465
 C     96.785932     76.251549     15.391479


 POINT   ATOM  MASS NO  NUCLEAR G FACTOR
   19   19 O      17      -0.7575220

 TENSOR IN ORIGINAL CARTESIAN AXES
 XX -2.424687E-02 YY  1.601852E-02 ZZ  8.228352E-03 XY -1.365677E-02 XZ  8.137433E-03 YZ -3.671521E-02

 TENSOR IN PRINCIPAL AXIS SYSTEM
 AA -2.940877E-02 BB  5.223011E-02 CC -2.282134E-02

 PRINCIPAL AXES
         X             Y             Z
 A  8.201531E-01  4.879803E-01  2.987040E-01
 B -2.001151E-01  7.337646E-01 -6.492638E-01
 C -5.360064E-01  4.727205E-01  6.994515E-01

 ANGLES BETWEEN PRINCIPAL AXES AND ORIGINAL AXES (DEGREES)
         X             Y             Z
 A     34.899879     60.792078     72.620218
 B    101.543688     42.797070    130.486117
 C    122.412190     61.788964     45.616984


 POINT   ATOM  MASS NO  NUCLEAR G FACTOR
   20   20 O      17      -0.7575220

 TENSOR IN ORIGINAL CARTESIAN AXES
 XX  2.220477E-03 YY -9.591696E-05 ZZ -2.124560E-03 XY  1.005445E-03 XZ -4.657476E-04 YZ -1.047083E-03

 TENSOR IN PRINCIPAL AXIS SYSTEM
 AA  2.734557E-03 BB -1.661932E-04 CC -2.568364E-03

 PRINCIPAL AXES
         X             Y             Z
 A  9.071026E-01  3.850839E-01 -1.699271E-01
 B -4.208255E-01  8.377936E-01 -3.478618E-01
 C  8.407845E-03  3.870560E-01  9.220179E-01

 ANGLES BETWEEN PRINCIPAL AXES AND ORIGINAL AXES (DEGREES)
         X             Y             Z
 A     24.892022     67.351052     99.783580
 B    114.886717     33.092147    110.356589
 C     89.518260     67.228560     22.777114


 POINT   ATOM  MASS NO  NUCLEAR G FACTOR
   21   21 O      17      -0.7575220

 TENSOR IN ORIGINAL CARTESIAN AXES
 XX -1.075774E-02 YY  1.214958E-02 ZZ -1.391841E-03 XY  1.425363E-02 XZ  1.091849E-02 YZ  3.900173E-03

 TENSOR IN PRINCIPAL AXIS SYSTEM
 AA -2.125315E-02 BB  2.209207E-02 CC -8.389136E-04

 PRINCIPAL AXES
         X             Y             Z
 A  8.558958E-01 -3.175712E-01 -4.081555E-01
 B  4.686215E-01  8.100614E-01  3.524123E-01
 C  2.187150E-01 -4.928986E-01  8.421489E-01

 ANGLES BETWEEN PRINCIPAL AXES AND ORIGINAL AXES (DEGREES)
         X             Y             Z
 A     31.141161    108.516107    114.089019
 B     62.055145     35.898070     69.365070
 C     77.366429    119.531278     32.632266


 POINT   ATOM  MASS NO  NUCLEAR G FACTOR
   22   22 O      17      -0.7575220

 TENSOR IN ORIGINAL CARTESIAN AXES
 XX -3.627951E-02 YY -1.256739E-02 ZZ  4.884691E-02 XY -8.533213E-02 XZ -3.029206E-02 YZ -2.537142E-02

 TENSOR IN PRINCIPAL AXIS SYSTEM
 AA -1.198284E-01 BB  6.187230E-02 CC  5.795612E-02

 PRINCIPAL AXES
         X             Y             Z
 A  7.349448E-01  6.386317E-01  2.280475E-01
 B -6.767539E-01  7.121283E-01  1.867550E-01
 C -4.313141E-02 -2.915866E-01  9.555715E-01

 ANGLES BETWEEN PRINCIPAL AXES AND ORIGINAL AXES (DEGREES)
         X             Y             Z
 A     42.697448     50.310133     76.817854
 B    132.590498     44.591654     79.236530
 C     92.472014    106.952970     17.143109


 POINT   ATOM  MASS NO  NUCLEAR G FACTOR
   23   23 O      17      -0.7575220

 TENSOR IN ORIGINAL CARTESIAN AXES
 XX  2.284021E-04 YY -2.185335E-03 ZZ  1.956933E-03 XY -2.211092E-03 XZ  4.760149E-03 YZ -5.045717E-03

 TENSOR IN PRINCIPAL AXIS SYSTEM
 AA -5.754771E-03 BB -2.823306E-03 CC  8.578077E-03

 PRINCIPAL AXES
         X             Y             Z
 A  2.218092E-01 -7.475733E-01 -6.260469E-01
 B  8.188343E-01  4.914120E-01 -2.966895E-01
 C  5.294442E-01 -4.468202E-01  7.211384E-01

 ANGLES BETWEEN PRINCIPAL AXES AND ORIGINAL AXES (DEGREES)
         X             Y             Z
 A     77.184680    138.380609    128.759071
 B     35.031732     60.566567    107.258875
 C     58.032093    116.539854     43.851452


 POINT   ATOM  MASS NO  NUCLEAR G FACTOR
   24   24 O      17      -0.7575220

 TENSOR IN ORIGINAL CARTESIAN AXES
 XX -3.999228E-02 YY  1.136257E-01 ZZ -7.363340E-02 XY -3.987094E-02 XZ  1.573073E-02 YZ -6.461094E-02

 TENSOR IN PRINCIPAL AXIS SYSTEM
 AA -4.972408E-02 BB  1.437039E-01 CC -9.397981E-02

 PRINCIPAL AXES
         X             Y             Z
 A  9.715506E-01  2.368307E-01 -7.800041E-04
 B -2.266891E-01  9.289829E-01 -2.925795E-01
 C -6.856721E-02  2.844327E-01  9.562409E-01

 ANGLES BETWEEN PRINCIPAL AXES AND ORIGINAL AXES (DEGREES)
         X             Y             Z
 A     13.699636     76.300439     90.044691
 B    103.102220     21.723176    107.012453
 C     93.931696     73.475061     17.012515


 POINT   ATOM  MASS NO  NUCLEAR G FACTOR
   25   25 O      17      -0.7575220

 TENSOR IN ORIGINAL CARTESIAN AXES
 XX  2.607945E-01 YY -7.541779E-02 ZZ -1.853767E-01 XY  2.362269E-01 XZ -1.263959E-01 YZ -5.952640E-02

 TENSOR IN PRINCIPAL AXIS SYSTEM
 AA  4.150912E-01 BB -1.961433E-01 CC -2.189479E-01

 PRINCIPAL AXES
         X             Y             Z
 A  8.665192E-01  4.447981E-01 -2.264928E-01
 B -4.011960E-01  8.906124E-01  2.141290E-01
 C  2.969615E-01 -9.467884E-02  9.501841E-01

 ANGLES BETWEEN PRINCIPAL AXES AND ORIGINAL AXES (DEGREES)
         X             Y             Z
 A     29.943361     63.589575    103.090677
 B    113.652970     27.049693     77.635570
 C     72.724806     95.432835     18.161064


 POINT   ATOM  MASS NO  NUCLEAR G FACTOR
   26   26 O      17      -0.7575220

 TENSOR IN ORIGINAL CARTESIAN AXES
 XX -3.858656E-02 YY -1.047738E-01 ZZ  1.433604E-01 XY -1.138791E-03 XZ  1.207583E-01 YZ  7.958408E-03

 TENSOR IN PRINCIPAL AXIS SYSTEM
 AA -9.636278E-02 BB -1.073570E-01 CC  2.037198E-01

 PRINCIPAL AXES
         X             Y             Z
 A  7.939502E-01 -4.711190E-01 -3.843045E-01
 B  4.133391E-01  8.818091E-01 -2.270761E-01
 C  4.458631E-01  2.143901E-02  8.948444E-01

 ANGLES BETWEEN PRINCIPAL AXES AND ORIGINAL AXES (DEGREES)
         X             Y             Z
 A     37.443787    118.106955    112.600572
 B     65.585238     28.138630    103.124988
 C     63.521428     88.771541     26.511551


 POINT   ATOM  MASS NO  NUCLEAR G FACTOR
   27   27 O      17      -0.7575220

 TENSOR IN ORIGINAL CARTESIAN AXES
 XX -5.643922E-03 YY  1.549522E-02 ZZ -9.851298E-03 XY -7.144669E-03 XZ -1.395355E-03 YZ  4.101895E-03

 TENSOR IN PRINCIPAL AXIS SYSTEM
 AA -7.825776E-03 BB  1.834856E-02 CC -1.052279E-02

 PRINCIPAL AXES
         X             Y             Z
 A  9.526287E-01  3.003088E-01 -4.809575E-02
 B -2.901936E-01  9.448523E-01  1.517954E-01
 C  9.102887E-02 -1.306475E-01  9.872411E-01

 ANGLES BETWEEN PRINCIPAL AXES AND ORIGINAL AXES (DEGREES)
         X             Y             Z
 A     17.706179     72.523848     92.756747
 B    106.869548     19.116912     81.269015
 C     84.777200     97.507012      9.162359


 POINT   ATOM  MASS NO  NUCLEAR G FACTOR
   28   28 O      17      -0.7575220

 TENSOR IN ORIGINAL CARTESIAN AXES
 XX  1.096460E-03 YY -2.027348E-03 ZZ  9.308886E-04 XY  5.079814E-03 XZ  4.472494E-03 YZ  1.920179E-03

 TENSOR IN PRINCIPAL AXIS SYSTEM
 AA  8.045161E-03 BB -6.032754E-03 CC -2.012406E-03

 PRINCIPAL AXES
         X             Y             Z
 A  6.928636E-01  4.559239E-01  5.586353E-01
 B -6.539623E-01  7.236915E-01  2.204630E-01
 C -3.037653E-01 -5.180772E-01  7.995765E-01

 ANGLES BETWEEN PRINCIPAL AXES AND ORIGINAL AXES (DEGREES)
         X             Y             Z
 A     46.142785     62.875603     56.038525
 B    130.841014     43.639896     77.263774
 C    107.683897    121.203363     36.910316


 POINT   ATOM  MASS NO  NUCLEAR G FACTOR
   29   29 O      17      -0.7575220

 TENSOR IN ORIGINAL CARTESIAN AXES
 XX -1.323641E-02 YY -2.177784E-02 ZZ  3.501424E-02 XY -7.339439E-02 XZ -8.882936E-03 YZ -1.496190E-02

 TENSOR IN PRINCIPAL AXIS SYSTEM
 AA  5.674407E-02 BB -9.327444E-02 CC  3.653036E-02

 PRINCIPAL AXES
         X             Y             Z
 A  6.991794E-01 -6.895260E-01  1.889499E-01
 B  6.778812E-01  7.233515E-01  1.312999E-01
 C -2.272119E-01  3.628346E-02  9.731692E-01

 ANGLES BETWEEN PRINCIPAL AXES AND ORIGINAL AXES (DEGREES)
         X             Y             Z
 A     45.638795    133.592597     79.108489
 B     47.321707     43.668113     82.455288
 C    103.132980     87.920654     13.302412


 POINT   ATOM  MASS NO  NUCLEAR G FACTOR
   30   30 O      17      -0.7575220

 TENSOR IN ORIGINAL CARTESIAN AXES
 XX  7.153793E-02 YY -2.873520E-02 ZZ -4.280273E-02 XY  1.304464E-01 XZ  1.068253E-01 YZ  7.277844E-02

 TENSOR IN PRINCIPAL AXIS SYSTEM
 AA  2.238174E-01 BB -1.183641E-01 CC -1.054533E-01

 PRINCIPAL AXES
         X             Y             Z
 A  7.420399E-01  5.089858E-01  4.362456E-01
 B -5.779714E-01  8.154410E-01  3.170210E-02
 C -3.395966E-01 -2.756617E-01  8.992690E-01

 ANGLES BETWEEN PRINCIPAL AXES AND ORIGINAL AXES (DEGREES)
         X             Y             Z
 A     42.094525     59.403699     64.135422
 B    125.307988     35.369009     88.183299
 C    109.852299    106.001450     25.937850


 POINT   ATOM  MASS NO  NUCLEAR G FACTOR
   31   31 O      17      -0.7575220

 TENSOR IN ORIGINAL CARTESIAN AXES
 XX -1.499300E-01 YY  3.518470E-02 ZZ  1.147453E-01 XY -1.145337E-01 XZ  3.970493E-02 YZ  1.835256E-01

 TENSOR IN PRINCIPAL AXIS SYSTEM
 AA -2.488714E-01 BB -1.827057E-02 CC  2.671420E-01

 PRINCIPAL AXES
         X             Y             Z
 A  7.648250E-01  5.376752E-01 -3.548916E-01
 B -6.353880E-01  5.385520E-01 -5.533930E-01
 C -1.064181E-01  6.487427E-01  7.535304E-01

 ANGLES BETWEEN PRINCIPAL AXES AND ORIGINAL AXES (DEGREES)
         X             Y             Z
 A     40.108571     57.474479    110.786799
 B    129.448764     57.414876    123.600103
 C     96.108878     49.553128     41.102872


 POINT   ATOM  MASS NO  NUCLEAR G FACTOR
   32   32 O      17      -0.7575220

 TENSOR IN ORIGINAL CARTESIAN AXES
 XX  8.998035E-03 YY -8.427043E-02 ZZ  7.527239E-02 XY -2.335303E-02 XZ -1.289276E-01 YZ  2.964994E-02

 TENSOR IN PRINCIPAL AXIS SYSTEM
 AA -9.103977E-02 BB -8.959054E-02 CC  1.806303E-01

 PRINCIPAL AXES
         X             Y             Z
 A  7.915887E-01  1.963653E-01  5.786432E-01
 B -7.198781E-02  9.703329E-01 -2.308070E-01
 C -6.067990E-01  1.410490E-01  7.822405E-01

 ANGLES BETWEEN PRINCIPAL AXES AND ORIGINAL AXES (DEGREES)
         X             Y             Z
 A     37.665771     78.675511     54.644829
 B     94.128169     13.991201    103.344589
 C    127.358410     81.891449     38.533830


 POINT   ATOM  MASS NO  NUCLEAR G FACTOR
   33   33 O      17      -0.7575220

 TENSOR IN ORIGINAL CARTESIAN AXES
 XX -2.052251E-01 YY  1.241186E-01 ZZ  8.110650E-02 XY  1.971687E-02 XZ  2.775249E-01 YZ -1.618325E-01

 TENSOR IN PRINCIPAL AXIS SYSTEM
 AA -3.950148E-01 BB  6.104643E-02 CC  3.339684E-01

 PRINCIPAL AXES
         X             Y             Z
 A  8.152801E-01 -2.003336E-01 -5.433091E-01
 B  4.474893E-01  8.134509E-01  3.715521E-01
 C  3.675209E-01 -5.460441E-01  7.528375E-01

 ANGLES BETWEEN PRINCIPAL AXES AND ORIGINAL AXES (DEGREES)
         X             Y             Z
 A     35.384932    101.556467    122.909190
 B     63.417283     35.565525     68.188630
 C     68.437193    123.096040     41.163230


 POINT   ATOM  MASS NO  NUCLEAR G FACTOR
   34   34 O      17      -0.7575220

 TENSOR IN ORIGINAL CARTESIAN AXES
 XX -3.082808E-03 YY  3.095372E-04 ZZ  2.773271E-03 XY  1.108310E-03 XZ  3.141117E-03 YZ  2.657700E-03

 TENSOR IN PRINCIPAL AXIS SYSTEM
 AA -4.449456E-03 BB -1.232925E-03 CC  5.682382E-03

 PRINCIPAL AXES
         X             Y             Z
 A  9.154175E-01  1.150156E-02 -4.023413E-01
 B -1.993505E-01  8.813375E-01 -4.283732E-01
 C  3.496715E-01  4.723473E-01  8.090846E-01

 ANGLES BETWEEN PRINCIPAL AXES AND ORIGINAL AXES (DEGREES)
         X             Y             Z
 A     23.734914     89.340995    113.724627
 B    101.498983     28.195872    115.364362
 C     69.532774     61.813230     35.993409


 POINT   ATOM  MASS NO  NUCLEAR G FACTOR
   35   35 O      17      -0.7575220

 TENSOR IN ORIGINAL CARTESIAN AXES
 XX -7.508976E-03 YY  8.739757E-04 ZZ  6.635000E-03 XY -1.026125E-02 XZ  1.809991E-02 YZ  2.946731E-04

 TENSOR IN PRINCIPAL AXIS SYSTEM
 AA -2.308336E-02 BB  2.379718E-03 CC  2.070365E-02

 PRINCIPAL AXES
         X             Y             Z
 A  7.990559E-01  3.482747E-01 -4.901168E-01
 B -1.179771E-01  8.901266E-01  4.401773E-01
 C  5.895686E-01 -2.939037E-01  7.523493E-01

 ANGLES BETWEEN PRINCIPAL AXES AND ORIGINAL AXES (DEGREES)
         X             Y             Z
 A     36.959963     69.618174    119.348258
 B     96.775371     27.110842     63.884805
 C     53.873599    107.091809     41.205706


 POINT   ATOM  MASS NO  NUCLEAR G FACTOR
   36   36 O      17      -0.7575220

 TENSOR IN ORIGINAL CARTESIAN AXES
 XX -7.846072E-04 YY  5.214693E-03 ZZ -4.430086E-03 XY  4.562088E-03 XZ -4.316520E-03 YZ -4.816195E-03

 TENSOR IN PRINCIPAL AXIS SYSTEM
 AA -2.819135E-03 BB  1.037602E-02 CC -7.556883E-03

 PRINCIPAL AXES
         X             Y             Z
 A  7.603051E-01 -5.920068E-01 -2.673277E-01
 B  4.742626E-01  7.871434E-01 -3.943099E-01
 C  4.438594E-01  1.730123E-01  8.792358E-01

 ANGLES BETWEEN PRINCIPAL AXES AND ORIGINAL AXES (DEGREES)
         X             Y             Z
 A     40.508897    126.299547    105.505310
 B     61.688653     38.080650    113.222944
 C     63.649615     80.036990     28.449686


 POINT   ATOM  MASS NO  NUCLEAR G FACTOR
   37   37 O      17      -0.7575220

 TENSOR IN ORIGINAL CARTESIAN AXES
 XX  1.247192E-01 YY -6.222732E-03 ZZ -1.184965E-01 XY  1.701428E-01 XZ  2.279115E-02 YZ  1.397521E-02

 TENSOR IN PRINCIPAL AXIS SYSTEM
 AA  2.435221E-01 BB -1.236517E-01 CC -1.198704E-01

 PRINCIPAL AXES
         X             Y             Z
 A  8.222811E-01  5.643084E-01  7.355165E-02
 B -5.434602E-01  7.403292E-01  3.956813E-01
 C  1.688339E-01 -3.653336E-01  9.154378E-01

 ANGLES BETWEEN PRINCIPAL AXES AND ORIGINAL AXES (DEGREES)
         X             Y             Z
 A     34.686207     55.645719     85.781992
 B    122.919501     42.240534     66.691527
 C     80.279975    111.428117     23.732016


 POINT   ATOM  MASS NO  NUCLEAR G FACTOR
   38   38 O      17      -0.7575220

 TENSOR IN ORIGINAL CARTESIAN AXES
 XX -2.302488E-03 YY -5.009942E-03 ZZ  7.312430E-03 XY  5.007529E-03 XZ  9.217705E-03 YZ  3.659078E-03

 TENSOR IN PRINCIPAL AXIS SYSTEM
 AA -4.928370E-03 BB -9.666353E-03 CC  1.459472E-02

 PRINCIPAL AXES
         X             Y             Z
 A  3.943842E-01  7.556858E-01 -5.228768E-01
 B -7.558509E-01  5.903669E-01  2.831188E-01
 C  5.226380E-01  2.835594E-01  8.040172E-01

 ANGLES BETWEEN PRINCIPAL AXES AND ORIGINAL AXES (DEGREES)
         X             Y             Z
 A     66.772428     40.914674    121.525421
 B    139.099779     53.816949     73.553569
 C     58.490630     73.527245     36.484556


 POINT   ATOM  MASS NO  NUCLEAR G FACTOR
   39   39 O      17      -0.7575220

 TENSOR IN ORIGINAL CARTESIAN AXES
 XX -1.764989E-02 YY  3.114384E-02 ZZ -1.349395E-02 XY  1.389252E-02 XZ  4.807195E-03 YZ  2.393433E-02

 TENSOR IN PRINCIPAL AXIS SYSTEM
 AA -2.070102E-02 BB  4.498194E-02 CC -2.428092E-02

 PRINCIPAL AXES
         X             Y             Z
 A  9.204194E-01 -6.899658E-02 -3.847956E-01
 B  2.279266E-01  8.944064E-01  3.848202E-01
 C  3.176124E-01 -4.419011E-01  8.389552E-01

 ANGLES BETWEEN PRINCIPAL AXES AND ORIGINAL AXES (DEGREES)
         X             Y             Z
 A     23.012530     93.956356    112.631050
 B     76.824966     26.567710     67.367422
 C     71.481408    116.225243     32.970047


 POINT   ATOM  MASS NO  NUCLEAR G FACTOR
   40   40 O      17      -0.7575220

 TENSOR IN ORIGINAL CARTESIAN AXES
 XX  1.047647E-03 YY  1.079610E-03 ZZ -2.127257E-03 XY -1.354779E-03 XZ  1.576876E-03 YZ  6.044929E-04

 TENSOR IN PRINCIPAL AXIS SYSTEM
 AA  5.323999E-04 BB  2.538967E-03 CC -3.071367E-03

 PRINCIPAL AXES
         X             Y             Z
 A  5.017951E-01  7.303232E-01  4.634973E-01
 B -7.565991E-01  6.302952E-01 -1.740281E-01
 C -4.192368E-01 -2.633552E-01  8.688409E-01

 ANGLES BETWEEN PRINCIPAL AXES AND ORIGINAL AXES (DEGREES)
         X             Y             Z
 A     59.881166     43.086505     62.386989
 B    139.165289     50.928091    100.022102
 C    114.786416    105.269239     29.675776


 POINT   ATOM  MASS NO  NUCLEAR G FACTOR
   41   41 O      17      -0.7575220

 TENSOR IN ORIGINAL CARTESIAN AXES
 XX  5.839450E-03 YY -2.190359E-03 ZZ -3.649091E-03 XY -2.331156E-03 XZ  3.765162E-04 YZ -3.069711E-03

 TENSOR IN PRINCIPAL AXIS SYSTEM
 AA  6.610889E-03 BB -4.196792E-04 CC -6.191210E-03

 PRINCIPAL AXES
         X             Y             Z
 A  9.479339E-01 -2.938757E-01  1.227123E-01
 B  3.021660E-01  7.082647E-01 -6.380101E-01
 C  1.005829E-01  6.418709E-01  7.601874E-01

 ANGLES BETWEEN PRINCIPAL AXES AND ORIGINAL AXES (DEGREES)
         X             Y             Z
 A     18.570241    107.090131     82.951337
 B     72.412253     44.906102    129.643595
 C     84.227264     50.068530     40.519281


 POINT   ATOM  MASS NO  NUCLEAR G FACTOR
   42   42 O      17      -0.7575220

 TENSOR IN ORIGINAL CARTESIAN AXES
 XX  6.265250E-03 YY -8.745485E-04 ZZ -5.390702E-03 XY  3.822760E-03 XZ -2.207628E-03 YZ -1.726533E-03

 TENSOR IN PRINCIPAL AXIS SYSTEM
 AA  8.458887E-03 BB -2.401224E-03 CC -6.057663E-03

 PRINCIPAL AXES
         X             Y             Z
 A  8.950023E-01  4.022387E-01 -1.928080E-01
 B -4.358930E-01  8.804427E-01 -1.865958E-01
 C  9.470029E-02  2.510473E-01  9.633312E-01

 ANGLES BETWEEN PRINCIPAL AXES AND ORIGINAL AXES (DEGREES)
         X             Y             Z
 A     26.491275     66.281795    101.116699
 B    115.842133     28.304194    100.754187
 C     84.565930     75.460503     15.564021


 POINT   ATOM  MASS NO  NUCLEAR G FACTOR
   43   43 O      17      -0.7575220

 TENSOR IN ORIGINAL CARTESIAN AXES
 XX -1.374699E-01 YY  1.703518E-02 ZZ  1.204347E-01 XY  5.646330E-02 XZ -6.301081E-02 YZ -2.016973E-01

 TENSOR IN PRINCIPAL AXIS SYSTEM
 AA -1.560727E-01 BB -1.374111E-01 CC  2.934838E-01

 PRINCIPAL AXES
         X             Y             Z
 A  9.253603E-01 -3.739947E-01 -6.193699E-02
 B  3.267409E-01  7.040162E-01  6.305566E-01
 C -1.922202E-01 -6.037294E-01  7.736680E-01

 ANGLES BETWEEN PRINCIPAL AXES AND ORIGINAL AXES (DEGREES)
         X             Y             Z
 A     22.277247    111.962195     93.551001
 B     70.928917     45.249884     50.908802
 C    101.082381    127.137465     39.315573


 POINT   ATOM  MASS NO  NUCLEAR G FACTOR
   44   44 O      17      -0.7575220

 TENSOR IN ORIGINAL CARTESIAN AXES
 XX  1.596129E-04 YY -3.080164E-03 ZZ  2.920551E-03 XY  4.120074E-03 XZ  7.467235E-03 YZ  7.315664E-03

 TENSOR IN PRINCIPAL AXIS SYSTEM
 AA  1.332234E-02 BB -5.191052E-03 CC -8.131287E-03

 PRINCIPAL AXES
         X             Y             Z
 A  5.429733E-01  4.520306E-01  7.077064E-01
 B -8.177006E-01  4.764580E-01  3.230379E-01
 C -1.911694E-01 -7.540929E-01  6.283296E-01

 ANGLES BETWEEN PRINCIPAL AXES AND ORIGINAL AXES (DEGREES)
         X             Y             Z
 A     57.113727     63.125962     44.951391
 B    144.855275     61.545678     71.153256
 C    101.021035    138.946175     51.073007


 POINT   ATOM  MASS NO  NUCLEAR G FACTOR
   45   45 O      17      -0.7575220

 TENSOR IN ORIGINAL CARTESIAN AXES
 XX  3.949965E-03 YY -1.494829E-03 ZZ -2.455136E-03 XY -2.138582E-03 XZ  5.886929E-03 YZ -2.026650E-03

 TENSOR IN PRINCIPAL AXIS SYSTEM
 AA  8.295250E-03 BB -2.234352E-03 CC -6.060898E-03

 PRINCIPAL AXES
         X             Y             Z
 A  8.179678E-01 -2.824260E-01  5.011629E-01
 B  3.255624E-01  9.455194E-01  1.476092E-03
 C -4.742761E-01  1.619524E-01  8.653517E-01

 ANGLES BETWEEN PRINCIPAL AXES AND ORIGINAL AXES (DEGREES)
         X             Y             Z
 A     35.118125    106.405052     59.923034
 B     71.000349     18.999853     89.915426
 C    118.312229     80.679762     30.077110


 POINT   ATOM  MASS NO  NUCLEAR G FACTOR
   46   46 O      17      -0.7575220

 TENSOR IN ORIGINAL CARTESIAN AXES
 XX -4.038951E-03 YY  1.430452E-03 ZZ  2.608499E-03 XY  7.863054E-04 XZ  2.111235E-03 YZ -1.774521E-03

 TENSOR IN PRINCIPAL AXIS SYSTEM
 AA -4.910407E-03 BB  8.052826E-04 CC  4.105124E-03

 PRINCIPAL AXES
         X             Y             Z
 A  9.295735E-01 -2.016370E-01 -3.086029E-01
 B  3.273916E-01  8.363402E-01  4.397156E-01
 C  1.694341E-01 -5.097819E-01  8.434539E-01

 ANGLES BETWEEN PRINCIPAL AXES AND ORIGINAL AXES (DEGREES)
         X             Y             Z
 A     21.631578    101.632700    107.975053
 B     70.889465     33.244354     63.914264
 C     80.245084    120.649306     32.493340


 POINT   ATOM  MASS NO  NUCLEAR G FACTOR
   47   47 O      17      -0.7575220

 TENSOR IN ORIGINAL CARTESIAN AXES
 XX  1.785788E-03 YY  1.520775E-04 ZZ -1.937865E-03 XY -1.215713E-04 XZ -6.915885E-04 YZ -2.064360E-03

 TENSOR IN PRINCIPAL AXIS SYSTEM
 AA  1.986138E-03 BB  1.304721E-03 CC -3.290860E-03

 PRINCIPAL AXES
         X             Y             Z
 A  9.034932E-01  2.926126E-01 -3.131740E-01
 B -4.090753E-01  8.067633E-01 -4.263689E-01
 C  1.278964E-01  5.133331E-01  8.486057E-01

 ANGLES BETWEEN PRINCIPAL AXES AND ORIGINAL AXES (DEGREES)
         X             Y             Z
 A     25.378901     72.985569    108.250615
 B    114.146758     36.219109    115.237339
 C     82.651950     59.113897     31.939660


 POINT   ATOM  MASS NO  NUCLEAR G FACTOR
   48   48 O      17      -0.7575220

 TENSOR IN ORIGINAL CARTESIAN AXES
 XX -1.270349E-03 YY  5.012443E-03 ZZ -3.742094E-03 XY -7.626784E-04 XZ -5.259394E-03 YZ  4.437731E-03

 TENSOR IN PRINCIPAL AXIS SYSTEM
 AA  7.682957E-04 BB  7.853842E-03 CC -8.622138E-03

 PRINCIPAL AXES
         X             Y             Z
 A  7.639923E-01  5.268156E-01 -3.725333E-01
 B -3.369623E-01  8.181460E-01  4.659329E-01
 C  5.502474E-01 -2.304394E-01  8.025743E-01

 ANGLES BETWEEN PRINCIPAL AXES AND ORIGINAL AXES (DEGREES)
         X             Y             Z
 A     40.182576     58.209449    111.871939
 B    109.691908     35.100366     62.229386
 C     56.616013    103.322945     36.623365


 POINT   ATOM  MASS NO  NUCLEAR G FACTOR
   49   49 O      17      -0.7575220

 TENSOR IN ORIGINAL CARTESIAN AXES
 XX  1.980205E-01 YY -1.288267E-01 ZZ -6.919383E-02 XY  7.914980E-02 XZ -1.036305E-01 YZ -3.543572E-02

 TENSOR IN PRINCIPAL AXIS SYSTEM
 AA  2.530393E-01 BB -1.496736E-01 CC -1.033656E-01

 PRINCIPAL AXES
         X             Y             Z
 A  9.211781E-01  2.206767E-01 -3.205194E-01
 B -1.504413E-01  9.615715E-01  2.296685E-01
 C  3.588848E-01 -1.633463E-01  9.189775E-01

 ANGLES BETWEEN PRINCIPAL AXES AND ORIGINAL AXES (DEGREES)
         X             Y             Z
 A     22.901073     77.251220    108.694339
 B     98.652499     15.935469     76.722444
 C     68.968276     99.401179     23.222942


 POINT   ATOM  MASS NO  NUCLEAR G FACTOR
   50   50 O      17      -0.7575220

 TENSOR IN ORIGINAL CARTESIAN AXES
 XX -2.073526E-03 YY -7.412480E-03 ZZ  9.486006E-03 XY -1.308877E-02 XZ -3.747619E-03 YZ  9.108977E-03

 TENSOR IN PRINCIPAL AXIS SYSTEM
 AA  9.047131E-04 BB -1.895464E-02 CC  1.804993E-02

 PRINCIPAL AXES
         X             Y             Z
 A  6.732761E-01 -3.410383E-01  6.560428E-01
 B  5.777400E-01  7.963667E-01 -1.789318E-01
 C -4.614281E-01  4.994927E-01  7.332061E-01

 ANGLES BETWEEN PRINCIPAL AXES AND ORIGINAL AXES (DEGREES)
         X             Y             Z
 A     47.679581    109.940147     49.001229
 B     54.708259     37.215465    100.307547
 C    117.479296     60.033558     42.844149


 POINT   ATOM  MASS NO  NUCLEAR G FACTOR
   51   51 O      17      -0.7575220

 TENSOR IN ORIGINAL CARTESIAN AXES
 XX  1.799827E-03 YY  1.481037E-03 ZZ -3.280864E-03 XY -1.906303E-03 XZ  1.515136E-03 YZ  2.214801E-03

 TENSOR IN PRINCIPAL AXIS SYSTEM
 AA  3.582729E-03 BB  1.259286E-03 CC -4.842015E-03

 PRINCIPAL AXES
         X             Y             Z
 A  6.973809E-01 -7.126576E-01 -7.602026E-02
 B  6.457948E-01  5.788410E-01  4.978877E-01
 C -3.108198E-01 -3.963109E-01  8.639032E-01

 ANGLES BETWEEN PRINCIPAL AXES AND ORIGINAL AXES (DEGREES)
         X             Y             Z
 A     45.782751    135.451555     94.359846
 B     49.774706     54.630934     60.139650
 C    108.108642    113.347754     30.242299


 POINT   ATOM  MASS NO  NUCLEAR G FACTOR
   52   52 O      17      -0.7575220

 TENSOR IN ORIGINAL CARTESIAN AXES
 XX -4.861671E-03 YY  5.359492E-03 ZZ -4.978207E-04 XY  3.971945E-04 XZ  4.043301E-04 YZ -2.737099E-04

 TENSOR IN PRINCIPAL AXIS SYSTEM
 AA -4.916052E-03 BB  5.386233E-03 CC -4.701808E-04

 PRINCIPAL AXES
         X             Y             Z
 A  9.947702E-01 -4.094468E-02 -9.357194E-02
 B  3.696260E-02  9.983519E-01 -4.390105E-02
 C  9.521524E-02  4.021280E-02  9.946442E-01

 ANGLES BETWEEN PRINCIPAL AXES AND ORIGINAL AXES (DEGREES)
         X             Y             Z
 A      5.862300     92.346613     95.369132
 B     87.881717      3.289974     92.516154
 C     84.536292     87.695355      5.932610


 POINT   ATOM  MASS NO  NUCLEAR G FACTOR
   53   53 O      17      -0.7575220

 TENSOR IN ORIGINAL CARTESIAN AXES
 XX -2.143199E-02 YY  7.738792E-02 ZZ -5.595594E-02 XY  2.150789E-03 XZ -1.134759E-01 YZ  4.079008E-03

 TENSOR IN PRINCIPAL AXIS SYSTEM
 AA  7.554177E-02 BB  7.802108E-02 CC -1.535629E-01

 PRINCIPAL AXES
         X             Y             Z
 A  6.757797E-01  4.690407E-01 -5.686146E-01
 B -3.446212E-01  8.829621E-01  3.187698E-01
 C  6.515812E-01 -1.946149E-02  7.583292E-01

 ANGLES BETWEEN PRINCIPAL AXES AND ORIGINAL AXES (DEGREES)
         X             Y             Z
 A     47.485273     62.027954    124.653676
 B    110.158675     27.998231     71.411457
 C     49.339078     91.115131     40.682873


 POINT   ATOM  MASS NO  NUCLEAR G FACTOR
   54   54 O      17      -0.7575220

 TENSOR IN ORIGINAL CARTESIAN AXES
 XX  4.206754E-01 YY -2.062122E-01 ZZ -2.144632E-01 XY -5.158053E-02 XZ  5.183529E-02 YZ -8.455593E-03

 TENSOR IN PRINCIPAL AXIS SYSTEM
 AA  4.291496E-01 BB -2.086789E-01 CC -2.204707E-01

 PRINCIPAL AXES
         X             Y             Z
 A  9.933520E-01 -8.172221E-02  8.107623E-02
 B  1.067860E-01  9.172057E-01 -3.838365E-01
 C -4.299561E-02  3.899425E-01  9.198349E-01

 ANGLES BETWEEN PRINCIPAL AXES AND ORIGINAL AXES (DEGREES)
         X             Y             Z
 A      6.610361     94.687565     85.349570
 B     83.869924     23.479066    112.571526
 C     92.464227     67.049077     23.098046


 POINT   ATOM  MASS NO  NUCLEAR G FACTOR
   55   55 O      17      -0.7575220

 TENSOR IN ORIGINAL CARTESIAN AXES
 XX -1.099052E-01 YY  1.076347E-02 ZZ  9.914172E-02 XY -4.687545E-02 XZ -5.436045E-02 YZ  1.639204E-01

 TENSOR IN PRINCIPAL AXIS SYSTEM
 AA -1.260743E-01 BB -1.133524E-01 CC  2.394267E-01

 PRINCIPAL AXES
         X             Y             Z
 A  9.214598E-01  3.842328E-01 -5.724560E-02
 B -3.324463E-01  7.037173E-01 -6.279024E-01
 C -2.009760E-01  5.976179E-01  7.761839E-01

 ANGLES BETWEEN PRINCIPAL AXES AND ORIGINAL AXES (DEGREES)
         X             Y             Z
 A     22.859569     67.403881     93.281725
 B    109.417324     45.273994    128.895537
 C    101.594038     53.300516     39.087506


 POINT   ATOM  MASS NO  NUCLEAR G FACTOR
   56   56 O      17      -0.7575220

 TENSOR IN ORIGINAL CARTESIAN AXES
 XX -3.284818E-03 YY  7.209299E-03 ZZ -3.924481E-03 XY  1.959103E-03 XZ  1.371023E-03 YZ -5.769631E-04

 TENSOR IN PRINCIPAL AXIS SYSTEM
 AA -2.327580E-03 BB  7.572396E-03 CC -5.244817E-03

 PRINCIPAL AXES
         X             Y             Z
 A  7.340650E-01 -1.102567E-01  6.700687E-01
 B  1.739972E-01  9.843293E-01 -2.864845E-02
 C -6.564096E-01  1.376199E-01  7.417460E-01

 ANGLES BETWEEN PRINCIPAL AXES AND ORIGINAL AXES (DEGREES)
         X             Y             Z
 A     42.771733     96.330111     47.927632
 B     79.979690     10.156644     91.641660
 C    131.026620     82.089854     42.119636


 POINT   ATOM  MASS NO  NUCLEAR G FACTOR
   57   57 SI     29      -1.1106000

 TENSOR IN ORIGINAL CARTESIAN AXES
 XX  1.409648E-03 YY -2.932839E-03 ZZ  1.523190E-03 XY  3.048180E-03 XZ  6.521028E-03 YZ  1.439019E-02

 TENSOR IN PRINCIPAL AXIS SYSTEM
 AA -1.460538E-03 BB -1.551003E-02 CC  1.697057E-02

 PRINCIPAL AXES
         X             Y             Z
 A  9.036889E-01 -3.621406E-01 -2.284742E-01
 B  1.251943E-01  7.337300E-01 -6.678074E-01
 C  4.094785E-01  5.748865E-01  7.084016E-01

 ANGLES BETWEEN PRINCIPAL AXES AND ORIGINAL AXES (DEGREES)
         X             Y             Z
 A     25.352719    111.231719    103.207256
 B     82.808023     42.799990    131.898062
 C     65.827918     54.908317     44.894985


 POINT   ATOM  MASS NO  NUCLEAR G FACTOR
   58   58 SI     29      -1.1106000

 TENSOR IN ORIGINAL CARTESIAN AXES
 XX  8.870483E-03 YY -2.010319E-02 ZZ  1.123270E-02 XY  4.125230E-03 XZ -9.031360E-04 YZ  1.310868E-03

 TENSOR IN PRINCIPAL AXIS SYSTEM
 AA  9.203773E-03 BB -2.074246E-02 CC  1.153869E-02

 PRINCIPAL AXES
         X             Y             Z
 A  9.354030E-01  1.460696E-01  3.220013E-01
 B -1.391669E-01  9.892692E-01 -4.448728E-02
 C -3.250442E-01 -3.198383E-03  9.456934E-01

 ANGLES BETWEEN PRINCIPAL AXES AND ORIGINAL AXES (DEGREES)
         X             Y             Z
 A     20.706643     81.600781     71.216002
 B     97.999641      8.401247     92.549775
 C    108.968252     90.183254     18.969206


 POINT   ATOM  MASS NO  NUCLEAR G FACTOR
   59   59 SI     29      -1.1106000

 TENSOR IN ORIGINAL CARTESIAN AXES
 XX -1.000312E-02 YY  3.368098E-03 ZZ  6.635026E-03 XY  1.395954E-02 XZ -1.803952E-02 YZ  1.377731E-02

 TENSOR IN PRINCIPAL AXIS SYSTEM
 AA -3.204154E-02 BB  1.179852E-02 CC  2.024301E-02

 PRINCIPAL AXES
         X             Y             Z
 A  7.174062E-01 -4.794692E-01  5.054084E-01
 B  6.286025E-01  7.582560E-01 -1.729353E-01
 C -3.003119E-01  4.417658E-01  8.453731E-01

 ANGLES BETWEEN PRINCIPAL AXES AND ORIGINAL AXES (DEGREES)
         X             Y             Z
 A     44.159257    118.650740     59.641533
 B     51.052904     40.689305     99.958526
 C    107.476335     63.783397     32.288064


 POINT   ATOM  MASS NO  NUCLEAR G FACTOR
   60   60 SI     29      -1.1106000

 TENSOR IN ORIGINAL CARTESIAN AXES
 XX  6.433323E-04 YY -1.513392E-03 ZZ  8.700600E-04 XY  1.995849E-03 XZ -9.580061E-04 YZ  3.582259E-04

 TENSOR IN PRINCIPAL AXIS SYSTEM
 AA  2.180062E-03 BB -2.877663E-03 CC  6.976016E-04

 PRINCIPAL AXES
         X             Y             Z
 A  7.925857E-01  3.822135E-01 -4.751008E-01
 B -5.250284E-01  8.240073E-01 -2.129723E-01
 C  3.100856E-01  4.182402E-01  8.537693E-01

 ANGLES BETWEEN PRINCIPAL AXES AND ORIGINAL AXES (DEGREES)
         X             Y             Z
 A     37.572189     67.529141    118.365911
 B    121.670154     34.512025    102.296591
 C     71.935609     65.276469     31.375959


 POINT   ATOM  MASS NO  NUCLEAR G FACTOR
   61   61 SI     29      -1.1106000

 TENSOR IN ORIGINAL CARTESIAN AXES
 XX  1.562121E-03 YY -5.886203E-03 ZZ  4.324082E-03 XY -2.259180E-03 XZ -1.618676E-04 YZ  1.476047E-03

 TENSOR IN PRINCIPAL AXIS SYSTEM
 AA  2.070080E-03 BB -6.690792E-03 CC  4.620712E-03

 PRINCIPAL AXES
         X             Y             Z
 A  9.487071E-01 -2.289325E-01  2.180477E-01
 B  2.597023E-01  9.576282E-01 -1.245104E-01
 C -1.803042E-01  1.747514E-01  9.679630E-01

 ANGLES BETWEEN PRINCIPAL AXES AND ORIGINAL AXES (DEGREES)
         X             Y             Z
 A     18.430641    103.234230     77.405606
 B     74.947601     16.738687     97.152485
 C    100.387479     79.935807     14.542197


 POINT   ATOM  MASS NO  NUCLEAR G FACTOR
   62   62 SI     29      -1.1106000

 TENSOR IN ORIGINAL CARTESIAN AXES
 XX  5.905078E-04 YY  6.595995E-04 ZZ -1.250107E-03 XY -3.822649E-04 XZ -7.497160E-04 YZ  3.463406E-04

 TENSOR IN PRINCIPAL AXIS SYSTEM
 AA  2.850261E-04 BB  1.250502E-03 CC -1.535528E-03

 PRINCIPAL AXES
         X             Y             Z
 A  6.287978E-01  7.658837E-01 -1.342964E-01
 B -7.104486E-01  6.360826E-01  3.011009E-01
 C  3.160319E-01 -9.392094E-02  9.440883E-01

 ANGLES BETWEEN PRINCIPAL AXES AND ORIGINAL AXES (DEGREES)
         X             Y             Z
 A     51.038519     40.014327     97.717934
 B    135.271426     50.499677     72.476261
 C     71.576883     95.389216     19.250125


 POINT   ATOM  MASS NO  NUCLEAR G FACTOR
   63   63 SI     29      -1.1106000

 TENSOR IN ORIGINAL CARTESIAN AXES
 XX -1.047633E-03 YY -1.416650E-03 ZZ  2.464283E-03 XY  3.536839E-03 XZ -3.397945E-05 YZ  6.807676E-05

 TENSOR IN PRINCIPAL AXIS SYSTEM
 AA  2.306394E-03 BB -4.774521E-03 CC  2.468127E-03

 PRINCIPAL AXES
         X             Y             Z
 A  7.192598E-01  6.807500E-01 -1.387258E-01
 B -6.883838E-01  7.252770E-01 -1.005215E-02
 C  9.377161E-02  1.027267E-01  9.902798E-01

 ANGLES BETWEEN PRINCIPAL AXES AND ORIGINAL AXES (DEGREES)
         X             Y             Z
 A     44.006600     47.097723     97.974119
 B    133.502308     43.508106     90.575956
 C     84.619377     84.103793      7.995162


 POINT   ATOM  MASS NO  NUCLEAR G FACTOR
   64   64 SI     29      -1.1106000

 TENSOR IN ORIGINAL CARTESIAN AXES
 XX  2.422987E-03 YY -1.166735E-04 ZZ -2.306313E-03 XY  1.934999E-02 XZ -2.011708E-02 YZ  2.199591E-02

 TENSOR IN PRINCIPAL AXIS SYSTEM
 AA  2.028265E-02 BB -4.112521E-02 CC  2.084256E-02

 PRINCIPAL AXES
         X             Y             Z
 A  8.182510E-01  1.918411E-01 -5.419061E-01
 B -5.396247E-01  5.812877E-01 -6.090236E-01
 C  1.981677E-01  7.907601E-01  5.791615E-01

 ANGLES BETWEEN PRINCIPAL AXES AND ORIGINAL AXES (DEGREES)
         X             Y             Z
 A     35.089904     78.939753    122.813492
 B    122.658096     54.458834    127.518935
 C     78.570171     37.743397     54.608413


 POINT   ATOM  MASS NO  NUCLEAR G FACTOR
   65   65 SI     29      -1.1106000

 TENSOR IN ORIGINAL CARTESIAN AXES
 XX  4.256052E-01 YY  4.168902E-01 ZZ -8.424954E-01 XY -3.385639E-02 XZ -2.634297E-01 YZ -2.445112E-01

 TENSOR IN PRINCIPAL AXIS SYSTEM
 AA  4.864929E-01 BB  4.533083E-01 CC -9.398012E-01

 PRINCIPAL AXES
         X             Y             Z
 A  8.313873E-01  4.934313E-01 -2.555791E-01
 B -5.219621E-01  8.512252E-01 -5.450966E-02
 C  1.906586E-01  1.787212E-01  9.652503E-01

 ANGLES BETWEEN PRINCIPAL AXES AND ORIGINAL AXES (DEGREES)
         X             Y             Z
 A     33.758484     60.433639    104.807899
 B    121.463956     31.654823     93.124722
 C     79.008781     79.704717     15.148834


 POINT   ATOM  MASS NO  NUCLEAR G FACTOR
   66   66 SI     29      -1.1106000

 TENSOR IN ORIGINAL CARTESIAN AXES
 XX -5.835428E-02 YY -2.976895E-02 ZZ  8.812323E-02 XY -8.982134E-02 XZ  5.161320E-02 YZ  3.629599E-02

 TENSOR IN PRINCIPAL AXIS SYSTEM
 AA -1.514951E-01 BB  4.634235E-02 CC  1.051528E-01

 PRINCIPAL AXES
         X             Y             Z
 A  7.406155E-01  6.221657E-01 -2.537687E-01
 B -6.217260E-01  7.777687E-01  9.237202E-02
 C  2.548441E-01  8.936247E-02  9.628441E-01

 ANGLES BETWEEN PRINCIPAL AXES AND ORIGINAL AXES (DEGREES)
         X             Y             Z
 A     42.216128     51.525544    104.700640
 B    128.442284     38.943264     84.699917
 C     75.235652     84.873069     15.667701


 POINT   ATOM  MASS NO  NUCLEAR G FACTOR
   67   67 SI     29      -1.1106000

 TENSOR IN ORIGINAL CARTESIAN AXES
 XX  2.701336E-03 YY -8.788245E-03 ZZ  6.086909E-03 XY  6.758156E-03 XZ  1.418481E-03 YZ -1.877804E-03

 TENSOR IN PRINCIPAL AXIS SYSTEM
 AA  5.534879E-03 BB -1.220276E-02 CC  6.667877E-03

 PRINCIPAL AXES
         X             Y             Z
 A  7.542519E-01  4.218459E-01 -5.031403E-01
 B -4.195710E-01  8.990954E-01  1.248508E-01
 C  5.050389E-01  1.169342E-01  8.551386E-01

 ANGLES BETWEEN PRINCIPAL AXES AND ORIGINAL AXES (DEGREES)
         X             Y             Z
 A     41.039958     65.048820    120.207980
 B    114.807506     25.960591     82.827862
 C     59.666065     83.284803     31.224945


 POINT   ATOM  MASS NO  NUCLEAR G FACTOR
   68   68 SI     29      -1.1106000

 TENSOR IN ORIGINAL CARTESIAN AXES
 XX -2.646357E-02 YY  5.338310E-03 ZZ  2.112526E-02 XY  1.030619E-02 XZ -1.108222E-02 YZ  9.682947E-03

 TENSOR IN PRINCIPAL AXIS SYSTEM
 AA -3.288006E-02 BB  6.464262E-03 CC  2.641580E-02

 PRINCIPAL AXES
         X             Y             Z
 A  9.189796E-01 -3.096626E-01  2.441015E-01
 B  3.747948E-01  8.783206E-01 -2.967856E-01
 C -1.224960E-01  3.642279E-01  9.232187E-01

 ANGLES BETWEEN PRINCIPAL AXES AND ORIGINAL AXES (DEGREES)
         X             Y             Z
 A     23.222638    108.038895     75.871256
 B     67.988366     28.559558    107.264639
 C     97.036178     68.639926     22.598736


 POINT   ATOM  MASS NO  NUCLEAR G FACTOR
   69   69 SI     29      -1.1106000

 TENSOR IN ORIGINAL CARTESIAN AXES
 XX -1.465118E-03 YY -4.259701E-03 ZZ  5.724819E-03 XY  2.640139E-02 XZ  2.591314E-02 YZ  3.093223E-02

 TENSOR IN PRINCIPAL AXIS SYSTEM
 AA  5.581778E-02 BB -3.180008E-02 CC -2.401770E-02

 PRINCIPAL AXES
         X             Y             Z
 A  5.417062E-01  5.605540E-01  6.263654E-01
 B -3.352706E-01  8.274175E-01 -4.505263E-01
 C -7.708100E-01  3.405100E-02  6.361545E-01

 ANGLES BETWEEN PRINCIPAL AXES AND ORIGINAL AXES (DEGREES)
         X             Y             Z
 A     57.200137     55.905880     51.217527
 B    109.588992     34.165640    116.777453
 C    140.426681     88.048644     50.494339


 POINT   ATOM  MASS NO  NUCLEAR G FACTOR
   70   70 SI     29      -1.1106000

 TENSOR IN ORIGINAL CARTESIAN AXES
 XX -6.409720E-03 YY  7.397068E-03 ZZ -9.873475E-04 XY -5.257651E-03 XZ -1.152390E-02 YZ -1.187560E-02

 TENSOR IN PRINCIPAL AXIS SYSTEM
 AA -2.050037E-02 BB  4.362746E-03 CC  1.613763E-02

 PRINCIPAL AXES
         X             Y             Z
 A  6.654088E-01  3.950312E-01  6.333889E-01
 B -7.329229E-01  5.067061E-01  4.539527E-01
 C -1.416165E-01 -7.662893E-01  6.266941E-01

 ANGLES BETWEEN PRINCIPAL AXES AND ORIGINAL AXES (DEGREES)
         X             Y             Z
 A     48.286307     66.732079     50.699406
 B    137.131991     59.555330     63.002431
 C     98.141397    140.021831     51.193364


 POINT   ATOM  MASS NO  NUCLEAR G FACTOR
   71   71 SI     29      -1.1106000

 TENSOR IN ORIGINAL CARTESIAN AXES
 XX -1.103550E-03 YY  1.139419E-03 ZZ -3.586916E-05 XY -1.576431E-02 XZ  1.183374E-02 YZ -1.373284E-02

 TENSOR IN PRINCIPAL AXIS SYSTEM
 AA -1.587556E-02 BB  2.767038E-02 CC -1.179482E-02

 PRINCIPAL AXES
         X             Y             Z
 A  6.748198E-01  7.271053E-01  1.262382E-01
 B -5.639066E-01  6.183883E-01 -5.473622E-01
 C -4.760542E-01  2.981843E-01  8.273201E-01

 ANGLES BETWEEN PRINCIPAL AXES AND ORIGINAL AXES (DEGREES)
         X             Y             Z
 A     47.559839     43.355734     82.747732
 B    124.326396     51.801468    123.186234
 C    118.428009     72.651421     34.175575


 POINT   ATOM  MASS NO  NUCLEAR G FACTOR
   72   72 SI     29      -1.1106000

 TENSOR IN ORIGINAL CARTESIAN AXES
 XX -2.329682E-04 YY -1.361155E-04 ZZ  3.690837E-04 XY -7.340727E-05 XZ  3.855531E-04 YZ -1.465825E-04

 TENSOR IN PRINCIPAL AXIS SYSTEM
 AA -4.211035E-04 BB -1.729093E-04 CC  5.940127E-04

 PRINCIPAL AXES
         X             Y             Z
 A  8.991864E-01  6.577702E-03 -4.375164E-01
 B  9.007667E-02  9.756886E-01  1.997948E-01
 C  4.281940E-01 -2.190628E-01  8.767334E-01

 ANGLES BETWEEN PRINCIPAL AXES AND ORIGINAL AXES (DEGREES)
         X             Y             Z
 A     25.948677     89.623123    115.945527
 B     84.831982     12.659789     78.475041
 C     64.647000    102.653991     28.749211


 POINT   ATOM  MASS NO  NUCLEAR G FACTOR
   73   73 SI     29      -1.1106000

 TENSOR IN ORIGINAL CARTESIAN AXES
 XX -2.720014E-04 YY  8.549075E-04 ZZ -5.829061E-04 XY -1.769165E-03 XZ -2.572702E-03 YZ  1.040386E-03

 TENSOR IN PRINCIPAL AXIS SYSTEM
 AA -3.070445E-03 BB  3.616745E-03 CC -5.463003E-04

 PRINCIPAL AXES
         X             Y             Z
 A  7.171872E-01  1.424339E-01  6.821694E-01
 B -6.146178E-01  5.906632E-01  5.228402E-01
 C -3.284622E-01 -7.942478E-01  5.111585E-01

 ANGLES BETWEEN PRINCIPAL AXES AND ORIGINAL AXES (DEGREES)
         X             Y             Z
 A     44.177263     81.811289     46.986599
 B    127.924157     53.795912     58.477042
 C    109.175465    142.584263     59.258969


 POINT   ATOM  MASS NO  NUCLEAR G FACTOR
   74   74 SI     29      -1.1106000

 TENSOR IN ORIGINAL CARTESIAN AXES
 XX -3.235823E-03 YY -6.083416E-03 ZZ  9.319239E-03 XY -1.910563E-02 XZ -2.339614E-03 YZ -1.632945E-03

 TENSOR IN PRINCIPAL AXIS SYSTEM
 AA  1.457119E-02 BB -2.405130E-02 CC  9.480117E-03

 PRINCIPAL AXES
         X             Y             Z
 A  7.335664E-01 -6.691665E-01 -1.187289E-01
 B  6.789162E-01  7.294756E-01  8.329488E-02
 C  3.087171E-02 -1.417093E-01  9.894268E-01

 ANGLES BETWEEN PRINCIPAL AXES AND ORIGINAL AXES (DEGREES)
         X             Y             Z
 A     42.813781    132.002764     96.818751
 B     47.240989     43.157547     85.222019
 C     88.230900     98.146769      8.339195


 POINT   ATOM  MASS NO  NUCLEAR G FACTOR
   75   75 SI     29      -1.1106000

 TENSOR IN ORIGINAL CARTESIAN AXES
 XX -6.384009E-03 YY  3.838229E-03 ZZ  2.545780E-03 XY -2.972896E-03 XZ  3.215803E-04 YZ -5.542580E-03

 TENSOR IN PRINCIPAL AXIS SYSTEM
 AA -7.358121E-03 BB  9.159894E-03 CC -1.801774E-03

 PRINCIPAL AXES
         X             Y             Z
 A  9.345987E-01  3.224732E-01  1.501211E-01
 B -1.572609E-01  7.531476E-01 -6.387783E-01
 C -3.190523E-01  5.733932E-01  7.546032E-01

 ANGLES BETWEEN PRINCIPAL AXES AND ORIGINAL AXES (DEGREES)
         X             Y             Z
 A     20.836597     71.187440     81.366053
 B     99.047943     41.136227    129.700780
 C    108.605620     55.012818     41.009293


 POINT   ATOM  MASS NO  NUCLEAR G FACTOR
   76   76 SI     29      -1.1106000

 TENSOR IN ORIGINAL CARTESIAN AXES
 XX -1.353351E-04 YY -2.917780E-03 ZZ  3.053115E-03 XY  1.680038E-03 XZ  1.745690E-03 YZ  1.912846E-03

 TENSOR IN PRINCIPAL AXIS SYSTEM
 AA -7.366243E-04 BB -3.880053E-03 CC  4.616678E-03

 PRINCIPAL AXES
         X             Y             Z
 A  8.418143E-01  2.137306E-01 -4.956489E-01
 B -3.358496E-01  9.262651E-01 -1.709916E-01
 C  4.225562E-01  3.104066E-01  8.515245E-01

 ANGLES BETWEEN PRINCIPAL AXES AND ORIGINAL AXES (DEGREES)
         X             Y             Z
 A     32.667793     77.658936    119.712552
 B    109.624207     22.140106     99.845476
 C     65.003925     71.916262     31.622127


 POINT   ATOM  MASS NO  NUCLEAR G FACTOR
   77   77 SI     29      -1.1106000

 TENSOR IN ORIGINAL CARTESIAN AXES
 XX -1.949505E-04 YY -7.050736E-04 ZZ  9.000241E-04 XY  6.284470E-04 XZ -4.323993E-04 YZ  1.575089E-03

 TENSOR IN PRINCIPAL AXIS SYSTEM
 AA  1.269860E-04 BB -1.993083E-03 CC  1.866097E-03

 PRINCIPAL AXES
         X             Y             Z
 A  9.205032E-01  3.438145E-01 -1.856487E-01
 B -3.901568E-01  7.829298E-01 -4.845603E-01
 C -2.124890E-02  5.184714E-01  8.548309E-01

 ANGLES BETWEEN PRINCIPAL AXES AND ORIGINAL AXES (DEGREES)
         X             Y             Z
 A     23.000242     69.890556    100.698958
 B    112.964257     38.470390    118.983666
 C     91.217564     58.770228     31.258940


 POINT   ATOM  MASS NO  NUCLEAR G FACTOR
   78   78 SI     29      -1.1106000

 TENSOR IN ORIGINAL CARTESIAN AXES
 XX -1.117173E-02 YY  2.646408E-03 ZZ  8.525325E-03 XY  2.786840E-02 XZ  2.861874E-02 YZ  3.096515E-02

 TENSOR IN PRINCIPAL AXIS SYSTEM
 AA -3.395267E-02 BB  5.931046E-02 CC -2.535779E-02

 PRINCIPAL AXES
         X             Y             Z
 A  8.621460E-01 -4.306426E-01 -2.669292E-01
 B  4.929528E-01  5.912511E-01  6.382943E-01
 C -1.170545E-01 -6.818864E-01  7.220313E-01

 ANGLES BETWEEN PRINCIPAL AXES AND ORIGINAL AXES (DEGREES)
         X             Y             Z
 A     30.441602    115.508348    105.481619
 B     60.465152     53.754161     50.335250
 C     96.722142    132.991232     43.777560


 POINT   ATOM  MASS NO  NUCLEAR G FACTOR
   79   79 SI     29      -1.1106000

 TENSOR IN ORIGINAL CARTESIAN AXES
 XX -7.820084E-04 YY -3.744509E-03 ZZ  4.526517E-03 XY -1.887753E-02 XZ -2.094223E-02 YZ  1.651120E-02

 TENSOR IN PRINCIPAL AXIS SYSTEM
 AA  3.789897E-02 BB -2.175480E-02 CC -1.614417E-02

 PRINCIPAL AXES
         X             Y             Z
 A  5.886562E-01 -5.141710E-01 -6.237885E-01
 B  7.743983E-01  5.800629E-01  2.526543E-01
 C  2.319291E-01 -6.317873E-01  7.396308E-01

 ANGLES BETWEEN PRINCIPAL AXES AND ORIGINAL AXES (DEGREES)
         X             Y             Z
 A     53.938296    120.942059    128.593322
 B     39.249484     54.545030     75.365366
 C     76.589327    129.182108     42.300025


 POINT   ATOM  MASS NO  NUCLEAR G FACTOR
   80   80 SI     29      -1.1106000

 TENSOR IN ORIGINAL CARTESIAN AXES
 XX  5.355507E-04 YY -1.180774E-03 ZZ  6.452236E-04 XY -9.141557E-04 XZ  5.723050E-04 YZ  9.167034E-04

 TENSOR IN PRINCIPAL AXIS SYSTEM
 AA  8.384474E-04 BB -2.008246E-03 CC  1.169798E-03

 PRINCIPAL AXES
         X             Y             Z
 A  6.908417E-01 -5.340315E-01 -4.873890E-01
 B  3.870539E-01  8.425521E-01 -3.745599E-01
 C  6.106775E-01  7.011580E-02  7.887692E-01

 ANGLES BETWEEN PRINCIPAL AXES AND ORIGINAL AXES (DEGREES)
         X             Y             Z
 A     46.303225    122.278255    119.169114
 B     67.228691     32.589391    111.997117
 C     52.361495     85.979362     37.929364


 POINT   ATOM  MASS NO  NUCLEAR G FACTOR
   81   81 SI     29      -1.1106000

 TENSOR IN ORIGINAL CARTESIAN AXES
 XX -3.543180E-02 YY -3.493148E-02 ZZ  7.036328E-02 XY -2.269787E-02 XZ  2.239414E-02 YZ -2.060138E-02

 TENSOR IN PRINCIPAL AXIS SYSTEM
 AA -5.789997E-02 BB -2.243200E-02 CC  8.033197E-02

 PRINCIPAL AXES
         X             Y             Z
 A  7.171590E-01  6.967827E-01 -1.329667E-02
 B -6.592974E-01  6.845137E-01  3.110754E-01
 C  2.258537E-01 -2.143240E-01  9.502922E-01

 ANGLES BETWEEN PRINCIPAL AXES AND ORIGINAL AXES (DEGREES)
         X             Y             Z
 A     44.179583     45.830551     90.761866
 B    131.246312     46.802624     71.875950
 C     76.946916    102.375874     18.141175


 POINT   ATOM  MASS NO  NUCLEAR G FACTOR
   82   82 SI     29      -1.1106000

 TENSOR IN ORIGINAL CARTESIAN AXES
 XX -1.428727E-01 YY -1.670403E-01 ZZ  3.099130E-01 XY  2.856875E-01 XZ  4.940881E-01 YZ  4.755457E-01

 TENSOR IN PRINCIPAL AXIS SYSTEM
 AA -4.711474E-01 BB -4.408728E-01 CC  9.120202E-01

 PRINCIPAL AXES
         X             Y             Z
 A  5.213604E-01  5.415140E-01 -6.595043E-01
 B -7.084009E-01  7.055462E-01  1.930379E-02
 C  4.757640E-01  4.571292E-01  7.514529E-01

 ANGLES BETWEEN PRINCIPAL AXES AND ORIGINAL AXES (DEGREES)
         X             Y             Z
 A     58.576448     57.213239    131.262078
 B    135.104958     45.126309     88.893906
 C     61.590892     62.797985     41.283610


 POINT   ATOM  MASS NO  NUCLEAR G FACTOR
   83   83 SI     29      -1.1106000

 TENSOR IN ORIGINAL CARTESIAN AXES
 XX -1.471496E-02 YY  6.736253E-03 ZZ  7.978703E-03 XY -6.758098E-02 XZ -6.724507E-02 YZ  7.252339E-02

 TENSOR IN PRINCIPAL AXIS SYSTEM
 AA -7.387348E-02 BB  1.390080E-01 CC -6.513453E-02

 PRINCIPAL AXES
         X             Y             Z
 A  8.482054E-01  4.149710E-01  3.291607E-01
 B -5.270489E-01  5.995276E-01  6.023173E-01
 C  5.260326E-02 -6.843725E-01  7.272325E-01

 ANGLES BETWEEN PRINCIPAL AXES AND ORIGINAL AXES (DEGREES)
         X             Y             Z
 A     31.982993     65.482511     70.782159
 B    121.806279     53.163928     52.963960
 C     86.984663    133.186279     43.345113


 POINT   ATOM  MASS NO  NUCLEAR G FACTOR
   84   84 SI     29      -1.1106000

 TENSOR IN ORIGINAL CARTESIAN AXES
 XX  5.892894E-03 YY -1.063703E-02 ZZ  4.744132E-03 XY -3.460611E-02 XZ  5.275639E-02 YZ -6.221551E-02

 TENSOR IN PRINCIPAL AXIS SYSTEM
 AA  1.009692E-01 BB -3.343502E-02 CC -6.753421E-02

 PRINCIPAL AXES
         X             Y             Z
 A  5.507085E-01 -5.301578E-01  6.447115E-01
 B  8.091113E-01  5.288344E-01 -2.562678E-01
 C -2.050832E-01  6.627721E-01  7.201902E-01

 ANGLES BETWEEN PRINCIPAL AXES AND ORIGINAL AXES (DEGREES)
         X             Y             Z
 A     56.584369    122.016118     49.855954
 B     35.990809     58.073268    104.848718
 C    101.834371     48.488364     43.929812


[...]
   9    9 O    -2.0642    0.4552  -12.9599   0.14565E+00
  10   10 O    -1.2548    0.6869  -17.7254   0.10044E-02
  11   11 O    -8.6097   -4.6550  -13.4046   0.11582E-01
  12   12 O     5.9433   -2.8459  -15.2364  -0.26313E-03
  13   13 O     4.0624   -6.5914  -18.2153  -0.76917E-03
  14   14 O    -0.9614   -7.5143  -19.0206  -0.92818E-03
  15   15 O     0.9251   -3.5388  -15.5642  -0.17922E-01
  16   16 O    -5.6183   -4.3625  -18.0517  -0.34936E-02
  17   17 O   -10.4548   -2.3238  -17.7571  -0.10495E-02
  18   18 O     7.4632    2.6400  -15.5257   0.14918E-02
  19   19 O     5.2301   -3.1624   -8.0710   0.14951E-01
  20   20 O     2.5862    4.8974   -5.5165  -0.10394E-02
  21   21 O     3.8819   -7.3797  -13.5544  -0.32532E-03
  22   22 O    -1.5873    8.9290   -0.0424  -0.48941E-01
  23   23 O     6.4568    1.4326   -6.5405  -0.38237E-03
  24   24 O    -7.4114    4.2085  -12.4454   0.84847E-01
  25   25 O     3.2765   -8.2041   -4.8060   0.33347E-01
  26   26 O    -4.7818    0.9111   -8.2733   0.10652E+00
  27   27 O     7.4295    7.7907   -6.3527  -0.76135E-03
  28   28 O     4.8090    9.7702   -9.8967  -0.40490E-02
  29   29 O     1.5274   -2.0790  -11.0874  -0.18127E-01
  30   30 O    -1.1398   -2.0937   -1.1642   0.43833E-01
  31   31 O    -3.3696   -8.4779  -10.0473  -0.35646E-01
  32   32 O     8.9011   -7.6607   -8.2649   0.51619E-01
  33   33 O    -4.0529   -3.3586  -10.5133  -0.10608E-01
  34   34 O    -9.5873    2.3147   -1.4889   0.13750E-02
  35   35 O     9.9378   -2.0848   -0.0136  -0.35419E-02
  36   36 O    10.1537   -2.8005   -8.3923   0.42328E-03
  37   37 O   -10.1017   -5.0817   -4.0782   0.27056E-01
  38   38 O    -2.0988    1.7308   -4.0339   0.29172E-02
  39   39 O    -9.8994    7.6328   -1.8373   0.92640E-02
  40   40 O    -6.3370    4.1276   -4.6519   0.51686E-03
  41   41 O     0.7930   -1.7867   -6.0553  -0.18415E-02
  42   42 O     2.8005    1.0639   -2.4895   0.49518E-02
  43   43 O     7.0339   -9.6738   -2.1151   0.39160E-01
  44   44 O     0.5846    8.7164   -7.9681   0.38037E-03
  45   45 O     2.1551    4.3885  -10.4693   0.17530E-03
  46   46 O    -2.1776    5.0555   -7.5908   0.30575E-04
  47   47 O     7.3772   -0.0196  -11.3541  -0.79056E-04
  48   48 O     9.8374    7.8039  -10.8234   0.51647E-02
  49   49 O     0.4639    8.9000  -13.6555   0.17111E+00
  50   50 O    -6.6454    7.9319   -8.9433  -0.31336E-02
  51   51 O    -7.2460   -6.9829   -7.5676  -0.85068E-03
  52   52 O    -3.9659   -9.8894   -4.9743  -0.48034E-03
  53   53 O     1.3107   -6.1625   -8.6175  -0.10091E+00
  54   54 O    -7.0293    8.9789  -14.1436   0.13149E+00
  55   55 O     5.9112   -4.6283   -1.6820   0.81762E-01
  56   56 O     6.2070    5.0104   -2.2935  -0.58334E-03
  57   57 SI    2.4304    1.9344    1.3627  -0.66375E-02
  58   58 SI    5.5092    5.1055    1.3455  -0.31207E-01
  59   59 SI    3.8160    8.5786    3.6193   0.10652E-01
  60   60 SI    8.8637    3.4269    3.7099  -0.23852E-02
  61   61 SI    1.1377    6.1116    6.1076   0.59219E-03
  62   62 SI    6.2803    1.0740    6.3762  -0.71126E-03
  63   63 SI    3.6305    3.6757    8.8096   0.90679E-03
  64   64 SI    8.9894    8.4361    8.8242  -0.16630E-01
  65   65 SI    1.9673   -7.9196    1.5064  -0.37112E+00
  66   66 SI    5.4490   -5.0665    1.6274  -0.40047E-01
  67   67 SI    3.8439   -1.4763    3.6977  -0.12435E-01
  68   68 SI    9.1652   -6.8029    3.3411   0.18369E-01
  69   69 SI    0.9993   -3.6577    6.2882  -0.74520E-02
  70   70 SI    6.5083   -8.8687    6.2417  -0.24755E-01
  71   71 SI    3.7394   -6.2443    8.6639   0.85287E-02
  72   72 SI    9.1339   -1.4255    8.6031  -0.38527E-02
  73   73 SI   -9.7892    0.6154    1.1017   0.52714E-02
  74   74 SI   -3.6069    6.4069    0.8934   0.87092E-02
  75   75 SI   -6.7319    8.4890    3.3274   0.50862E-02
  76   76 SI   -1.2400    3.5826    3.3181  -0.15633E-02
  77   77 SI   -9.3014    6.0954    6.0525  -0.15580E-02
  78   78 SI   -3.9438    1.2882    6.0795   0.23679E-01
  79   79 SI   -6.6359    3.7200    8.6954   0.16899E-01
  80   80 SI   -1.5999    8.6569    8.6073   0.62074E-03
  81   81 SI   -8.8206   -8.8173    0.3029   0.19390E+00
  82   82 SI   -3.5317   -3.5253    0.5922   0.54198E+00
  83   83 SI   -6.3940   -1.1550    3.3066   0.51746E-01
  84   84 SI   -1.4568   -6.1216    3.5529   0.31067E-01
  85   85 SI   -9.2520   -3.8404    5.7186  -0.66198E-03
  86   86 SI   -4.1949   -8.7391    5.9158  -0.10115E-02
  87   87 SI   -6.6951   -6.1475    8.5242  -0.17329E-02
  88   88 SI   -1.4961   -1.1140    8.9242  -0.22550E-01
  89   89 SI    1.0481    1.4265   11.5817  -0.15997E-02
  90   90 SI    6.2006    6.1025   11.4329   0.13813E-02
  91   91 SI    0.9262   -8.5747   11.2107   0.11210E-02
  92   92 SI    6.3251   -3.6699   11.2311   0.60829E-02
  93   93 SI   -9.3619    1.2564   11.1815   0.14921E-02
  94   94 SI   -4.0953    6.2349   11.4030   0.59783E-02
  95   95 SI   -9.2806   -8.6680   11.0438  -0.40731E-02
  96   96 SI   -4.2454   -3.5921   11.3486   0.43086E-02
  97   97 SI    3.3834    8.6886   13.8167   0.61706E-03
  98   98 SI    8.9715    3.6563   13.8553  -0.93336E-04
  99   99 SI    1.1354    6.5071   16.9983  -0.65123E-03
 100  100 SI    6.5479    1.3730   16.7812  -0.95831E-03
 101  101 SI    4.0563    4.0582   19.3851  -0.11070E-02
 102  102 SI    8.8261    8.7412   18.7210   0.21806E-02
 103  103 SI    3.9375   -0.9684   13.9316   0.22820E-03
 104  104 SI    9.0104   -6.2821   13.5613   0.30367E-02
 105  105 SI    1.3825   -3.4592   16.4841   0.12043E-02
 106  106 SI    6.2836   -8.6659   16.0293  -0.18427E-04
 107  107 SI    4.9170   -5.2862   18.4571  -0.42311E-03
 108  108 SI    8.5589   -2.1437   19.0366  -0.15917E-02
 109  109 SI   -6.7956    8.8028   13.7673   0.32499E-02
 110  110 SI   -1.5108    3.9368   14.3182  -0.14140E-02
 111  111 SI   -9.3833    6.2661   16.2242  -0.25222E-03
 112  112 SI   -4.0614    1.1174   16.7413   0.15376E-02
 113  113 SI   -8.2528    4.2923  -19.4569   0.22282E-02
 114  114 SI   -1.6823    9.3350   19.4274   0.11318E-01
 115  115 SI   -6.8376   -1.0560   13.9726   0.88718E-03
 116  116 SI   -1.5316   -5.9817   13.9744   0.78113E-03
 117  117 SI   -9.4723   -3.7692   16.2163   0.94494E-03
 118  118 SI   -4.2608   -8.6593   16.4287   0.22161E-02
 119  119 SI   -7.0636   -6.2739   18.9158   0.30061E-02
 120  120 SI   -1.4607   -1.4901   19.2872   0.21310E-02
 121  121 SI    7.2496    5.7026  -16.0517   0.58170E-02
 122  122 SI    0.6865   -0.7636  -13.7332   0.56882E-01
 123  123 SI    3.8039   -5.0782  -15.5899   0.41356E-03
 124  124 SI   -8.5266    8.2594  -17.0174   0.48439E-02
 125  125 SI   -3.5660    2.7547  -16.8406   0.46028E-01
 126  126 SI   -2.6797    9.1778  -14.3011   0.20174E+01
 127  127 SI    6.0799    0.1793  -14.1424   0.19326E-02
 128  128 SI   -8.7047   -4.5190  -16.2988  -0.15241E-02
 129  129 SI   -2.2702   -5.1261  -17.5386   0.38596E-02
 130  130 SI    4.6862    2.9724   -4.5041  -0.15188E-02
 131  131 SI   -2.1093    8.0001   -3.1015  -0.30059E-03
 132  132 SI    7.5018   -1.0781   -8.4261  -0.18488E-02
 133  133 SI   -4.6478   -0.3018  -11.1227   0.15884E+01
 134  134 SI    2.4928   -8.8318   -7.6856  -0.22284E-01
 135  135 SI   -2.5881   -5.8608  -11.4794  -0.13179E+01
 136  136 SI   -9.9453   -5.5891   -7.1682  -0.39673E-02
 137  137 SI    5.9640   -7.1575   -3.5991   0.12751E+01
 138  138 SI   -3.9279    3.0038   -6.1875   0.19218E-01
 139  139 SI    8.2559    7.4925   -3.3655  -0.63015E-02
 140  140 SI    0.8667    5.5461   -8.1143   0.50421E-04
 141  141 SI    2.2019   -3.1893   -8.3891   0.13894E-02
 142  142 SI   -9.2870    4.4174   -3.7291   0.11932E-01
 143  143 SI   -8.0233    6.9792  -11.6396   0.30352E-01
 144  144 SI   -0.0160   -0.3743   -3.4401   0.31929E-02
 145  145 SI    3.4296    9.3829  -13.0600   0.58767E-01
 146  146 SI    9.0823   -2.5554   -3.0457   0.59353E-01
 147  147 SI    8.0465    9.3011   -8.9387  -0.52106E-03
 148  148 SI   -5.3060   -9.4074   -7.7299  -0.16430E-01
 *******************************************************************************
 HYPERFINE COUPLING CONSTANTS (AN)
 *******************************************************************************
 POINT  ATOM  MASS N0    NUCLEAR      AN (MT)       AN (MHZ)    AN (CM**(-1))
                        G FACTOR
   1    1 O      17   -0.7575220   -0.12758E+00  -0.35755E+01  -0.11926E-03
   2    2 O      17   -0.7575220   -0.34643E+00  -0.97086E+01  -0.32384E-03
   3    3 O      17   -0.7575220   -0.17083E+01  -0.47874E+02  -0.15969E-02
   4    4 O      17   -0.7575220   -0.97468E-01  -0.27315E+01  -0.91115E-04
   5    5 O      17   -0.7575220   -0.11198E-01  -0.31383E+00  -0.10468E-04
   6    6 O      17   -0.7575220    0.27911E+01   0.78221E+02   0.26092E-02
   7    7 O      17   -0.7575220   -0.19109E-01  -0.53553E+00  -0.17863E-04
   8    8 O      17   -0.7575220   -0.42813E-01  -0.11998E+01  -0.40022E-04
   9    9 O      17   -0.7575220   -0.31506E+01  -0.88294E+02  -0.29452E-02
  10   10 O      17   -0.7575220   -0.21725E-01  -0.60885E+00  -0.20309E-04
  11   11 O      17   -0.7575220   -0.25053E+00  -0.70210E+01  -0.23419E-03
  12   12 O      17   -0.7575220    0.56917E-02   0.15951E+00   0.53207E-05
  13   13 O      17   -0.7575220    0.16638E-01   0.46627E+00   0.15553E-04
  14   14 O      17   -0.7575220    0.20077E-01   0.56266E+00   0.18768E-04
  15   15 O      17   -0.7575220    0.38767E+00   0.10864E+02   0.36239E-03
  16   16 O      17   -0.7575220    0.75568E-01   0.21178E+01   0.70642E-04
  17   17 O      17   -0.7575220    0.22701E-01   0.63618E+00   0.21221E-04
  18   18 O      17   -0.7575220   -0.32268E-01  -0.90430E+00  -0.30164E-04
  19   19 O      17   -0.7575220   -0.32341E+00  -0.90634E+01  -0.30232E-03
  20   20 O      17   -0.7575220    0.22483E-01   0.63009E+00   0.21018E-04
  21   21 O      17   -0.7575220    0.70369E-02   0.19721E+00   0.65782E-05
  22   22 O      17   -0.7575220    0.10586E+01   0.29668E+02   0.98962E-03
  23   23 O      17   -0.7575220    0.82709E-02   0.23179E+00   0.77317E-05
  24   24 O      17   -0.7575220   -0.18353E+01  -0.51434E+02  -0.17157E-02
  25   25 O      17   -0.7575220   -0.72132E+00  -0.20215E+02  -0.67429E-03
  26   26 O      17   -0.7575220   -0.23041E+01  -0.64572E+02  -0.21539E-02
  27   27 O      17   -0.7575220    0.16469E-01   0.46153E+00   0.15395E-04
  28   28 O      17   -0.7575220    0.87583E-01   0.24545E+01   0.81874E-04
  29   29 O      17   -0.7575220    0.39209E+00   0.10988E+02   0.36653E-03
  30   30 O      17   -0.7575220   -0.94814E+00  -0.26572E+02  -0.88633E-03
  31   31 O      17   -0.7575220    0.77104E+00   0.21608E+02   0.72078E-03
  32   32 O      17   -0.7575220   -0.11165E+01  -0.31291E+02  -0.10438E-02
  33   33 O      17   -0.7575220    0.22945E+00   0.64304E+01   0.21450E-03
  34   34 O      17   -0.7575220   -0.29741E-01  -0.83350E+00  -0.27803E-04
  35   35 O      17   -0.7575220    0.76613E-01   0.21471E+01   0.71619E-04
  36   36 O      17   -0.7575220   -0.91558E-02  -0.25659E+00  -0.85589E-05
  37   37 O      17   -0.7575220   -0.58523E+00  -0.16401E+02  -0.54708E-03
  38   38 O      17   -0.7575220   -0.63101E-01  -0.17684E+01  -0.58988E-04
  39   39 O      17   -0.7575220   -0.20039E+00  -0.56158E+01  -0.18732E-03
  40   40 O      17   -0.7575220   -0.11180E-01  -0.31332E+00  -0.10451E-04
  41   41 O      17   -0.7575220    0.39833E-01   0.11163E+01   0.37236E-04
  42   42 O      17   -0.7575220   -0.10711E+00  -0.30018E+01  -0.10013E-03
  43   43 O      17   -0.7575220   -0.84706E+00  -0.23739E+02  -0.79184E-03
  44   44 O      17   -0.7575220   -0.82276E-02  -0.23058E+00  -0.76913E-05
  45   45 O      17   -0.7575220   -0.37918E-02  -0.10626E+00  -0.35446E-05
  46   46 O      17   -0.7575220   -0.66136E-03  -0.18534E-01  -0.61824E-06
  47   47 O      17   -0.7575220    0.17100E-02   0.47923E-01   0.15986E-05
  48   48 O      17   -0.7575220   -0.11172E+00  -0.31308E+01  -0.10443E-03
  49   49 O      17   -0.7575220   -0.37012E+01  -0.10373E+03  -0.34599E-02
  50   50 O      17   -0.7575220    0.67781E-01   0.18996E+01   0.63363E-04
  51   51 O      17   -0.7575220    0.18401E-01   0.51568E+00   0.17201E-04
  52   52 O      17   -0.7575220    0.10390E-01   0.29118E+00   0.97127E-05
  53   53 O      17   -0.7575220    0.21827E+01   0.61171E+02   0.20404E-02
  54   54 O      17   -0.7575220   -0.28442E+01  -0.79708E+02  -0.26588E-02
  55   55 O      17   -0.7575220   -0.17686E+01  -0.49564E+02  -0.16533E-02
  56   56 O      17   -0.7575220    0.12618E-01   0.35362E+00   0.11796E-04
  57   57 SI     29   -1.1106000    0.21049E+00   0.58990E+01   0.19677E-03
  58   58 SI     29   -1.1106000    0.98966E+00   0.27735E+02   0.92515E-03
  59   59 SI     29   -1.1106000   -0.33779E+00  -0.94665E+01  -0.31577E-03
  60   60 SI     29   -1.1106000    0.75639E-01   0.21198E+01   0.70709E-04
  61   61 SI     29   -1.1106000   -0.18780E-01  -0.52630E+00  -0.17556E-04
  62   62 SI     29   -1.1106000    0.22556E-01   0.63213E+00   0.21086E-04
  63   63 SI     29   -1.1106000   -0.28757E-01  -0.80590E+00  -0.26882E-04
  64   64 SI     29   -1.1106000    0.52740E+00   0.14780E+02   0.49301E-03
  65   65 SI     29   -1.1106000    0.11769E+02   0.32983E+03   0.11002E-01
  66   66 SI     29   -1.1106000    0.12700E+01   0.35591E+02   0.11872E-02
  67   67 SI     29   -1.1106000    0.39433E+00   0.11051E+02   0.36863E-03
  68   68 SI     29   -1.1106000   -0.58252E+00  -0.16325E+02  -0.54455E-03
  69   69 SI     29   -1.1106000    0.23632E+00   0.66229E+01   0.22092E-03
  70   70 SI     29   -1.1106000    0.78505E+00   0.22001E+02   0.73387E-03
  71   71 SI     29   -1.1106000   -0.27047E+00  -0.75799E+01  -0.25284E-03
  72   72 SI     29   -1.1106000    0.12218E+00   0.34241E+01   0.11421E-03
  73   73 SI     29   -1.1106000   -0.16717E+00  -0.46849E+01  -0.15627E-03
  74   74 SI     29   -1.1106000   -0.27619E+00  -0.77403E+01  -0.25819E-03
  75   75 SI     29   -1.1106000   -0.16130E+00  -0.45203E+01  -0.15078E-03
  76   76 SI     29   -1.1106000    0.49576E-01   0.13894E+01   0.46345E-04
  77   77 SI     29   -1.1106000    0.49409E-01   0.13847E+01   0.46188E-04
  78   78 SI     29   -1.1106000   -0.75091E+00  -0.21044E+02  -0.70196E-03
  79   79 SI     29   -1.1106000   -0.53592E+00  -0.15019E+02  -0.50098E-03
  80   80 SI     29   -1.1106000   -0.19685E-01  -0.55168E+00  -0.18402E-04
  81   81 SI     29   -1.1106000   -0.61490E+01  -0.17233E+03  -0.57482E-02
  82   82 SI     29   -1.1106000   -0.17188E+02  -0.48168E+03  -0.16067E-01
  83   83 SI     29   -1.1106000   -0.16410E+01  -0.45989E+02  -0.15340E-02
  84   84 SI     29   -1.1106000   -0.98522E+00  -0.27611E+02  -0.92099E-03
  85   85 SI     29   -1.1106000    0.20993E-01   0.58833E+00   0.19624E-04
  86   86 SI     29   -1.1106000    0.32078E-01   0.89898E+00   0.29987E-04
  87   87 SI     29   -1.1106000    0.54955E-01   0.15401E+01   0.51373E-04
  88   88 SI     29   -1.1106000    0.71512E+00   0.20041E+02   0.66851E-03
  89   89 SI     29   -1.1106000    0.50731E-01   0.14217E+01   0.47424E-04
  90   90 SI     29   -1.1106000   -0.43805E-01  -0.12276E+01  -0.40950E-04
  91   91 SI     29   -1.1106000   -0.35551E-01  -0.99630E+00  -0.33233E-04
  92   92 SI     29   -1.1106000   -0.19291E+00  -0.54062E+01  -0.18033E-03
  93   93 SI     29   -1.1106000   -0.47318E-01  -0.13261E+01  -0.44233E-04
  94   94 SI     29   -1.1106000   -0.18959E+00  -0.53131E+01  -0.17723E-03
  95   95 SI     29   -1.1106000    0.12917E+00   0.36200E+01   0.12075E-03
  96   96 SI     29   -1.1106000   -0.13664E+00  -0.38293E+01  -0.12773E-03
  97   97 SI     29   -1.1106000   -0.19569E-01  -0.54841E+00  -0.18293E-04
  98   98 SI     29   -1.1106000    0.29599E-02   0.82952E-01   0.27670E-05
  99   99 SI     29   -1.1106000    0.20652E-01   0.57878E+00   0.19306E-04
 100  100 SI     29   -1.1106000    0.30391E-01   0.85169E+00   0.28409E-04
 101  101 SI     29   -1.1106000    0.35107E-01   0.98387E+00   0.32818E-04
 102  102 SI     29   -1.1106000   -0.69154E-01  -0.19380E+01  -0.64646E-04
 103  103 SI     29   -1.1106000   -0.72367E-02  -0.20281E+00  -0.67649E-05
 104  104 SI     29   -1.1106000   -0.96302E-01  -0.26989E+01  -0.90024E-04
 105  105 SI     29   -1.1106000   -0.38190E-01  -0.10703E+01  -0.35701E-04
 106  106 SI     29   -1.1106000    0.58438E-03   0.16377E-01   0.54628E-06
 107  107 SI     29   -1.1106000    0.13418E-01   0.37604E+00   0.12543E-04
 108  108 SI     29   -1.1106000    0.50478E-01   0.14146E+01   0.47187E-04
 109  109 SI     29   -1.1106000   -0.10306E+00  -0.28883E+01  -0.96344E-04
 110  110 SI     29   -1.1106000    0.44842E-01   0.12567E+01   0.41919E-04
 111  111 SI     29   -1.1106000    0.79985E-02   0.22416E+00   0.74771E-05
 112  112 SI     29   -1.1106000   -0.48762E-01  -0.13666E+01  -0.45583E-04
 113  113 SI     29   -1.1106000   -0.70661E-01  -0.19803E+01  -0.66055E-04
 114  114 SI     29   -1.1106000   -0.35891E+00  -0.10058E+02  -0.33551E-03
 115  115 SI     29   -1.1106000   -0.28135E-01  -0.78848E+00  -0.26301E-04
 116  116 SI     29   -1.1106000   -0.24772E-01  -0.69423E+00  -0.23157E-04
 117  117 SI     29   -1.1106000   -0.29967E-01  -0.83981E+00  -0.28013E-04
 118  118 SI     29   -1.1106000   -0.70278E-01  -0.19695E+01  -0.65696E-04
 119  119 SI     29   -1.1106000   -0.95331E-01  -0.26717E+01  -0.89117E-04
 120  120 SI     29   -1.1106000   -0.67580E-01  -0.18939E+01  -0.63175E-04
 121  121 SI     29   -1.1106000   -0.18447E+00  -0.51698E+01  -0.17245E-03
 122  122 SI     29   -1.1106000   -0.18039E+01  -0.50553E+02  -0.16863E-02
 123  123 SI     29   -1.1106000   -0.13115E-01  -0.36755E+00  -0.12260E-04
 124  124 SI     29   -1.1106000   -0.15361E+00  -0.43050E+01  -0.14360E-03
 125  125 SI     29   -1.1106000   -0.14597E+01  -0.40907E+02  -0.13645E-02
 126  126 SI     29   -1.1106000   -0.63977E+02  -0.17929E+04  -0.59806E-01
 127  127 SI     29   -1.1106000   -0.61286E-01  -0.17175E+01  -0.57291E-04
 128  128 SI     29   -1.1106000    0.48332E-01   0.13545E+01   0.45182E-04
 129  129 SI     29   -1.1106000   -0.12240E+00  -0.34302E+01  -0.11442E-03
 130  130 SI     29   -1.1106000    0.48165E-01   0.13498E+01   0.45025E-04
 131  131 SI     29   -1.1106000    0.95326E-02   0.26715E+00   0.89112E-05
 132  132 SI     29   -1.1106000    0.58630E-01   0.16431E+01   0.54808E-04
 133  133 SI     29   -1.1106000   -0.50373E+02  -0.14117E+04  -0.47089E-01
 134  134 SI     29   -1.1106000    0.70667E+00   0.19805E+02   0.66061E-03
 135  135 SI     29   -1.1106000    0.41794E+02   0.11713E+04   0.39069E-01
 136  136 SI     29   -1.1106000    0.12581E+00   0.35259E+01   0.11761E-03
 137  137 SI     29   -1.1106000   -0.40437E+02  -0.11332E+04  -0.37801E-01
 138  138 SI     29   -1.1106000   -0.60944E+00  -0.17080E+02  -0.56971E-03
 139  139 SI     29   -1.1106000    0.19984E+00   0.56004E+01   0.18681E-03
 140  140 SI     29   -1.1106000   -0.15990E-02  -0.44812E-01  -0.14948E-05
 141  141 SI     29   -1.1106000   -0.44060E-01  -0.12348E+01  -0.41188E-04
 142  142 SI     29   -1.1106000   -0.37839E+00  -0.10604E+02  -0.35372E-03
 143  143 SI     29   -1.1106000   -0.96254E+00  -0.26975E+02  -0.89979E-03
 144  144 SI     29   -1.1106000   -0.10125E+00  -0.28377E+01  -0.94654E-04
 145  145 SI     29   -1.1106000   -0.18637E+01  -0.52229E+02  -0.17422E-02
 146  146 SI     29   -1.1106000   -0.18822E+01  -0.52749E+02  -0.17595E-02
 147  147 SI     29   -1.1106000    0.16524E-01   0.46309E+00   0.15447E-04
 148  148 SI     29   -1.1106000    0.52105E+00   0.14602E+02   0.48709E-03

  CONVERSION FACTORS 
     AN (MILLI T)        28.554470 * GN * P(SPIN) (BOHR**(-3))
     AN (MHZ)            28.024940 * AN (MILLI T) 
     AN (CM**(-1))   0.3335641E-04 * AN (MHZ) 
 TTTTTTTTTTTTTTTTTTTTTTTTTTTTTT ISOTROPIC   TELAPSE   106784.22 TCPU   106613.15
 ENDPROP   
 TTTTTTTTTTTTTTTTTTTTTTTTTTTTTT END         TELAPSE   106784.22 TCPU   106613.15
 EEEEEEEEEE TERMINATION  DATE 12 05 2015 TIME 17:33:49.0
