--------------------------------------------------------------------------
WARNING: Open MPI will create a shared memory backing file in a
directory that appears to be mounted on a network filesystem.
Creating the shared memory backup file on a network file system, such
as NFS or Lustre is not recommended -- it may cause excessive network
traffic to your file servers and/or cause shared memory traffic in
Open MPI to be much slower than expected.

You may want to check what the typical temporary directory is on your
node.  Possible sources of the location of this temporary directory
include the $TEMPDIR, $TEMP, and $TMP environment variables.

Note, too, that system administrators can set a list of filesystems
where Open MPI is disallowed from creating temporary files by settings
the MCA parameter "orte_no_session_dir".

  Local host: r2i5n0
  Fileame:    /ichec/work/scratch/tmp/231331.service1.cb3.ichec.ie/openmpi-sessions-emehes@r2i5n0_0/2310/1/shared_mem_pool.r2i5n0

You can set the MCA paramter shmem_mmap_enable_nfs_warning to 0 to
disable this message.
--------------------------------------------------------------------------
--------------------------------------------------------------------------
WARNING: It appears that your OpenFabrics subsystem is configured to only
allow registering part of your physical memory.  This can cause MPI jobs to
run with erratic performance, hang, and/or crash.

This may be caused by your OpenFabrics vendor limiting the amount of
physical memory that can be registered.  You should investigate the
relevant Linux kernel module parameters that control how much physical
memory can be registered, and increase them to allow registering all
physical memory on your machine.

See this Open MPI FAQ item for more information on these Linux kernel module
parameters:

    http://www.open-mpi.org/faq/?category=openfabrics#ib-locked-pages

  Local host:              r2i5n0
  Registerable memory:     32768 MiB
  Total memory:            65506 MiB

Your MPI job will continue, but may be behave poorly and/or hang.
--------------------------------------------------------------------------
         192 PROCESSORS WORKING

         
 *******************************************************************************
 *                                                                             *
 *                                CRYSTAL09                                    *
 *                              public : 2.0                                   *
 *                      December 10th, 2012 - parallel executable              *
 *                                                                             *
 *                                                                             *
 *                                                                             *
 *                              MAIN AUTHORS                                   *
 *                                                                             *
 *    R. DOVESI(1,10), V.R. SAUNDERS(2), C. ROETTI(1,10), R. ORLANDO (1,3),    *
 *  C.M. ZICOVICH-WILSON(1,4), F. PASCALE(5), B. CIVALLERI(1,10), K. DOLL(6),  *
 *       N.M. HARRISON(2,7), I. J. BUSH(2), Ph. D'ARCO(8), M. LLUNELL(9)       *
 *                                                                             *
 * (1) THEORETICAL CHEMISTRY GROUP - UNIVERSITA' DI TORINO - TORINO (ITALY)    *
 *      http://www.crystal.unito.it                                            *
 * (2) COMPUTATIONAL SCIENCE & ENGINEERING DEPARTMENT - STFC DARESBURY LABORATO*Y (UK)
 *     http://www.cse.stfc.ac.uk/cmg/CRYSTAL/                                  *
 * (3) UNIVERSITA' DEL PIEMONTE ORIENTALE - ALESSANDRIA (ITALY)                *
 * (4) UNIVERSIDAD AUTONOMA DEL ESTADO DE MORELOS - CUERNAVACA (MEXICO)        *
 * (5) UNIVERSITE' HENRI POINCARE' - NANCY (FRANCE)                            *
 * (6) MPI FUER FESTKOERPERFORSCHUNG - STUTTGART (GERMANY)                     *
 * (7) IMPERIAL COLLEGE - LONDON (UK)                                          *
 * (8) UNIVERSITE' PIERRE ET MARIE CURIE - PARIS (FRANCE)                      *
 * (9) UNIVERSIDAD DE BARCELONA - BARCELONA (SPAIN)                            *
 *(10) NIS - NANOSTRUCTURED INTERFACES AND SURFACES - TORINO (ITALY)           *
 *     http://www.crystal.unito.it                                             *
 *******************************************************************************
 EEEEEEEEEE STARTING  DATE 13 07 2014 TIME 07:46:53.4
 Created with astools                                                            

 CRYSTAL CALCULATION
 (INPUT ACCORDING TO THE INTERNATIONAL TABLES FOR X-RAY CRYSTALLOGRAPHY)
 CRYSTAL FAMILY                       :  TRICLINIC   
 CRYSTAL CLASS  (GROTH - 1921)        :  TRICLINIC PEDIAL                     

 SPACE GROUP (NONCENTROSYMMETRIC)     :  P 1             

 LATTICE PARAMETERS  (ANGSTROMS AND DEGREES) - CONVENTIONAL CELL
        A           B           C        ALPHA        BETA       GAMMA
    11.09810    10.18390    21.68540    90.00000    90.00000    90.00000


 NUMBER OF IRREDUCIBLE ATOMS IN THE CONVENTIONAL CELL:  148

 INPUT COORDINATES

 ATOM AT. N.              COORDINATES
   1   8     5.663430000000E-01  8.606210000000E-01  6.436530000000E-01
   2   8     3.317710000000E-01  2.739360000000E-01  6.293040000000E-01
   3   8     6.807820000000E-01  2.189630000000E-01  5.380890000000E-01
   4   8     3.344950000000E-01  5.296800000000E-01  5.957170000000E-01
   5   8     6.588750000000E-01  8.131500000000E-02  6.836370000000E-01
   6   8     7.886820000000E-01  6.084300000000E-01  5.645080000000E-01
   7   8     6.070660000000E-01  5.100160000000E-01  6.196170000000E-01
   8   8     4.331910000000E-01  9.342510000000E-01  5.376070000000E-01
   9   8     1.582260000000E-01  9.765400000000E-02  5.225300000000E-01
  10   8     9.498600000000E-02  2.231900000000E-01  6.216150000000E-01
  11   8     6.680760000000E-01  9.555340000000E-01  5.443970000000E-01
  12   8     8.438610000000E-01  6.128500000000E-02  5.957710000000E-01
  13   8     9.353830000000E-01  5.196940000000E-01  6.476430000000E-01
  14   8     4.918470000000E-01  3.606790000000E-01  5.435740000000E-01
  15   8     2.774210000000E-01  3.260540000000E-01  5.122660000000E-01
  16   8     2.962800000000E-01  8.073030000000E-01  6.427040000000E-01
  17   8     5.554960000000E-01  7.184170000000E-01  5.519760000000E-01
  18   8     1.831240000000E-01  6.923360000000E-01  5.467670000000E-01
  19   8     8.867700000000E-01  7.992800000000E-01  6.119640000000E-01
  20   8     4.141500000000E-02  3.422880000000E-01  9.447570000000E-01
  21   8     1.969790000000E-01  3.356670000000E-01  7.250440000000E-01
  22   8     1.373830000000E-01  4.440110000000E-01  8.447150000000E-01
  23   8     4.683180000000E-01  1.844250000000E-01  8.105950000000E-01
  24   8     6.095550000000E-01  1.341660000000E-01  8.997560000000E-01
  25   8     7.496460000000E-01  4.573870000000E-01  7.180950000000E-01
  26   8     9.204610000000E-01  7.936900000000E-01  9.462100000000E-01
  27   8     4.527060000000E-01  6.605210000000E-01  8.502470000000E-01
  28   8     1.520440000000E-01  6.031470000000E-01  7.528990000000E-01
  29   8     5.816010000000E-01  6.328410000000E-01  7.244330000000E-01
  30   8     4.910180000000E-01  9.214190000000E-01  8.645960000000E-01
  31   8     8.718260000000E-01 -7.778000000000E-03  7.066300000000E-01
  32   8     4.085800000000E-02  7.771280000000E-01  6.973010000000E-01
  33   8     6.150840000000E-01  8.766480000000E-01  7.614440000000E-01
  34   8     8.031480000000E-01  7.431410000000E-01  7.290920000000E-01
  35   8     8.528580000000E-01  1.598890000000E-01  9.334590000000E-01
  36   8     9.807190000000E-01  4.060460000000E-01  7.499310000000E-01
  37   8     7.841880000000E-01  2.262870000000E-01  8.237100000000E-01
  38   8     3.683290000000E-01  7.593840000000E-01  9.515070000000E-01
  39   8     5.922310000000E-01  5.812130000000E-01  9.411260000000E-01
  40   8     2.114600000000E-02  1.881680000000E-01  8.489600000000E-01
  41   8     7.133220000000E-01  3.545950000000E-01  9.345390000000E-01
  42   8     3.448390000000E-01  9.136300000000E-02  9.069400000000E-01
  43   8     4.244870000000E-01 -1.108400000000E-02  7.115000000000E-01
  44   8     5.183310000000E-01  3.802450000000E-01  7.246150000000E-01
  45   8     8.350400000000E-02  8.998900000000E-02  9.570870000000E-01
  46   8     2.299630000000E-01  8.574830000000E-01  7.589010000000E-01
  47   8     5.715190000000E-01  4.268660000000E-01  8.409800000000E-01
  48   8     6.845350000000E-01  6.635140000000E-01  8.313540000000E-01
  49   8     9.012440000000E-01  5.090410000000E-01  8.738070000000E-01
  50   8     3.481220000000E-01  4.047900000000E-01  8.144590000000E-01
  51   8     8.098900000000E-02  5.950880000000E-01  9.498720000000E-01
  52   8     1.565290000000E-01  8.498440000000E-01  9.558740000000E-01
  53   8     1.124360000000E-01  7.284860000000E-01  8.519290000000E-01
  54   8     9.810890000000E-01  8.585520000000E-01  7.926840000000E-01
  55   8     8.478450000000E-01  2.582470000000E-01  6.688210000000E-01
  56   8     2.205760000000E-01  6.653100000000E-02  6.821160000000E-01
  57  14     5.438700000000E-02  2.976900000000E-02  2.994300000000E-02
  58  14     3.311620000000E-01  3.033020000000E-01  1.236700000000E-02
  59  14     2.107280000000E-01  4.176800000000E-01  8.324300000000E-02
  60  14     4.496780000000E-01  1.816480000000E-01  8.464100000000E-02
  61  14     7.525400000000E-02  3.023580000000E-01  1.471580000000E-01
  62  14     3.241560000000E-01  5.886600000000E-02  1.514150000000E-01
  63  14     1.924930000000E-01  1.795440000000E-01  2.170530000000E-01
  64  14     4.484240000000E-01  4.332020000000E-01  2.149460000000E-01
  65  14     1.268440000000E-01  5.995940000000E-01  3.377700000000E-02
  66  14     2.751660000000E-01  7.691660000000E-01  1.295900000000E-02
  67  14     2.061420000000E-01  9.283510000000E-01  8.718300000000E-02
  68  14     4.442020000000E-01  6.821140000000E-01  7.758800000000E-02
  69  14     7.343200000000E-02  8.117170000000E-01  1.537830000000E-01
  70  14     3.247380000000E-01  5.558800000000E-01  1.492410000000E-01
  71  14     1.943290000000E-01  6.769360000000E-01  2.160500000000E-01
  72  14     4.493860000000E-01  9.214740000000E-01  2.084890000000E-01
  73  14     5.484350000000E-01  1.549800000000E-02  2.658700000000E-02
  74  14     8.009330000000E-01  4.361690000000E-01  9.838260000000E-01
  75  14     6.973800000000E-01  4.294310000000E-01  8.307200000000E-02
  76  14     9.412570000000E-01  1.838470000000E-01  8.540600000000E-02
  77  14     5.716870000000E-01  3.079720000000E-01  1.492550000000E-01
  78  14     8.269510000000E-01  4.835600000000E-02  1.486190000000E-01
  79  14     6.984730000000E-01  1.739930000000E-01  2.108140000000E-01
  80  14     9.514780000000E-01  4.272640000000E-01  2.119040000000E-01
  81  14     6.198610000000E-01  6.139230000000E-01  1.549000000000E-02
  82  14     8.286970000000E-01  7.672600000000E-01  1.117300000000E-02
  83  14     7.182480000000E-01  9.291620000000E-01  7.458100000000E-02
  84  14     9.555720000000E-01  6.809320000000E-01  8.761200000000E-02
  85  14     5.757940000000E-01  8.052600000000E-01  1.397290000000E-01
  86  14     8.222100000000E-01  5.535430000000E-01  1.489920000000E-01
  87  14     6.959310000000E-01  6.861300000000E-01  2.129570000000E-01
  88  14     9.477170000000E-01  9.338280000000E-01  2.196440000000E-01
  89  14     6.617700000000E-02  5.936300000000E-02  2.871000000000E-01
  90  14     3.177020000000E-01  3.114510000000E-01  2.775470000000E-01
  91  14     6.799700000000E-02  5.533430000000E-01  2.815120000000E-01
  92  14     3.199180000000E-01  8.073600000000E-01  2.769350000000E-01
  93  14     5.694920000000E-01  4.518100000000E-02  2.723130000000E-01
  94  14     8.296340000000E-01  2.963640000000E-01  2.734440000000E-01
  95  14     5.707710000000E-01  5.610060000000E-01  2.799800000000E-01
  96  14     8.193480000000E-01  8.088080000000E-01  2.815030000000E-01
  97  14     1.930420000000E-01  4.276010000000E-01  3.464970000000E-01
  98  14     4.432450000000E-01  1.733130000000E-01  3.329430000000E-01
  99  14     6.370900000000E-02  3.178420000000E-01  4.163130000000E-01
 100  14     3.211360000000E-01  6.950300000000E-02  4.054320000000E-01
 101  14     2.090290000000E-01  2.065190000000E-01  4.726080000000E-01
 102  14     4.950400000000E-01  4.306870000000E-01  4.455940000000E-01
 103  14     1.966820000000E-01  9.279560000000E-01  3.466410000000E-01
 104  14     4.360070000000E-01  6.818630000000E-01  3.448100000000E-01
 105  14     7.912000000000E-02  7.886700000000E-01  4.072620000000E-01
 106  14     3.146840000000E-01  5.521220000000E-01  4.134460000000E-01
 107  14     1.479680000000E-01  6.300410000000E-01  4.772490000000E-01
 108  14     4.723210000000E-01  9.783490000000E-01  4.641050000000E-01
 109  14     7.084700000000E-01  4.256780000000E-01  3.350780000000E-01
 110  14     9.382620000000E-01  1.877820000000E-01  3.533440000000E-01
 111  14     5.977600000000E-01  2.685990000000E-01  3.887300000000E-01
 112  14     7.614920000000E-01  1.079350000000E-01  4.039880000000E-01
 113  14     6.569820000000E-01  8.561300000000E-02  4.950240000000E-01
 114  14     9.822320000000E-01  4.772670000000E-01  4.854910000000E-01
 115  14     6.886750000000E-01  9.321670000000E-01  3.442280000000E-01
 116  14     9.390390000000E-01  6.792330000000E-01  3.459770000000E-01
 117  14     5.649970000000E-01  8.011920000000E-01  4.083240000000E-01
 118  14     8.308780000000E-01  5.350310000000E-01  4.097120000000E-01
 119  14     6.411890000000E-01  5.956610000000E-01  4.471510000000E-01
 120  14     8.379200000000E-02  7.082500000000E-02  5.869710000000E-01
 121  14     8.041010000000E-01  1.026800000000E-01  6.653040000000E-01
 122  14     2.111680000000E-01  2.275350000000E-01  6.682490000000E-01
 123  14     6.469140000000E-01  5.943740000000E-01  5.549140000000E-01
 124  14     2.443430000000E-01  6.614620000000E-01  6.144930000000E-01
 125  14     9.199150000000E-01  6.379360000000E-01  5.953030000000E-01
 126  14     6.019570000000E-01  2.901230000000E-01  5.932940000000E-01
 127  14     5.519130000000E-01  8.704920000000E-01  5.704940000000E-01
 128  14     8.852160000000E-01  9.219340000000E-01  5.576800000000E-01
 129  14     3.522050000000E-01  3.776800000000E-01  5.724640000000E-01
 130  14     2.544800000000E-02  4.734240000000E-01  9.008490000000E-01
 131  14     5.675930000000E-01  9.589380000000E-01  7.020100000000E-01
 132  14     4.794010000000E-01  8.204300000000E-02  8.714800000000E-01
 133  14     2.247800000000E-01 -5.659000000000E-03  8.880440000000E-01
 134  14     3.928490000000E-01  7.993750000000E-01  8.787110000000E-01
 135  14     6.738020000000E-01  7.294660000000E-01  7.626630000000E-01
 136  14     1.211570000000E-01  4.508520000000E-01  7.635110000000E-01
 137  14     7.350810000000E-01  2.209320000000E-01  8.949170000000E-01
 138  14    -5.222000000000E-03  1.964570000000E-01  9.226500000000E-01
 139  14     8.801740000000E-01  4.082140000000E-01  6.936750000000E-01
 140  14     9.200350000000E-01  1.828860000000E-01  7.915220000000E-01
 141  14     4.796520000000E-01  3.431460000000E-01  7.960040000000E-01
 142  14     2.932380000000E-01  4.687060000000E-01  8.788150000000E-01
 143  14     2.907100000000E-01  9.239700000000E-01  6.975310000000E-01
 144  14     1.053930000000E-01  7.645420000000E-01  7.719320000000E-01
 145  14     9.170920000000E-01  8.455320000000E-01  7.242520000000E-01
 146  14     6.135620000000E-01  4.899610000000E-01  6.960600000000E-01
 147  14     5.631400000000E-02  7.547190000000E-01  9.201710000000E-01
 148  14     5.800560000000E-01  5.793310000000E-01  8.665420000000E-01

 *******************************************************************************

 << INFORMATION >>: FROM NOW ON, ALL COORDINATES REFER TO THE PRIMITIVE CELL

 *******************************************************************************

 LATTICE PARAMETERS  (ANGSTROMS AND DEGREES) - PRIMITIVE CELL
       A          B          C         ALPHA     BETA     GAMMA        VOLUME
   11.09810   10.18390   21.68540    90.00000  90.00000  90.00000   2450.925990

 COORDINATES OF THE EQUIVALENT ATOMS (FRACTIONAL UNITS)

 N. ATOM EQUIV AT. N.          X                  Y                  Z

   1   1   1    8 O    -4.33657000000E-01 -1.39379000000E-01 -3.56347000000E-01

   2   2   1    8 O     3.31771000000E-01  2.73936000000E-01 -3.70696000000E-01

   3   3   1    8 O    -3.19218000000E-01  2.18963000000E-01 -4.61911000000E-01

   4   4   1    8 O     3.34495000000E-01 -4.70320000000E-01 -4.04283000000E-01

   5   5   1    8 O    -3.41125000000E-01  8.13150000000E-02 -3.16363000000E-01

   6   6   1    8 O    -2.11318000000E-01 -3.91570000000E-01 -4.35492000000E-01

   7   7   1    8 O    -3.92934000000E-01 -4.89984000000E-01 -3.80383000000E-01

   8   8   1    8 O     4.33191000000E-01 -6.57490000000E-02 -4.62393000000E-01

   9   9   1    8 O     1.58226000000E-01  9.76540000000E-02 -4.77470000000E-01

  10  10   1    8 O     9.49860000000E-02  2.23190000000E-01 -3.78385000000E-01

  11  11   1    8 O    -3.31924000000E-01 -4.44660000000E-02 -4.55603000000E-01

  12  12   1    8 O    -1.56139000000E-01  6.12850000000E-02 -4.04229000000E-01

  13  13   1    8 O    -6.46170000000E-02 -4.80306000000E-01 -3.52357000000E-01

  14  14   1    8 O     4.91847000000E-01  3.60679000000E-01 -4.56426000000E-01

  15  15   1    8 O     2.77421000000E-01  3.26054000000E-01 -4.87734000000E-01

  16  16   1    8 O     2.96280000000E-01 -1.92697000000E-01 -3.57296000000E-01

  17  17   1    8 O    -4.44504000000E-01 -2.81583000000E-01 -4.48024000000E-01

  18  18   1    8 O     1.83124000000E-01 -3.07664000000E-01 -4.53233000000E-01

  19  19   1    8 O    -1.13230000000E-01 -2.00720000000E-01 -3.88036000000E-01

  20  20   1    8 O     4.14150000000E-02  3.42288000000E-01 -5.52430000000E-02

  21  21   1    8 O     1.96979000000E-01  3.35667000000E-01 -2.74956000000E-01

  22  22   1    8 O     1.37383000000E-01  4.44011000000E-01 -1.55285000000E-01

  23  23   1    8 O     4.68318000000E-01  1.84425000000E-01 -1.89405000000E-01

  24  24   1    8 O    -3.90445000000E-01  1.34166000000E-01 -1.00244000000E-01

  25  25   1    8 O    -2.50354000000E-01  4.57387000000E-01 -2.81905000000E-01

  26  26   1    8 O    -7.95390000000E-02 -2.06310000000E-01 -5.37900000000E-02

  27  27   1    8 O     4.52706000000E-01 -3.39479000000E-01 -1.49753000000E-01

  28  28   1    8 O     1.52044000000E-01 -3.96853000000E-01 -2.47101000000E-01

  29  29   1    8 O    -4.18399000000E-01 -3.67159000000E-01 -2.75567000000E-01

  30  30   1    8 O     4.91018000000E-01 -7.85810000000E-02 -1.35404000000E-01

  31  31   1    8 O    -1.28174000000E-01 -7.77800000000E-03 -2.93370000000E-01

  32  32   1    8 O     4.08580000000E-02 -2.22872000000E-01 -3.02699000000E-01

  33  33   1    8 O    -3.84916000000E-01 -1.23352000000E-01 -2.38556000000E-01

  34  34   1    8 O    -1.96852000000E-01 -2.56859000000E-01 -2.70908000000E-01

  35  35   1    8 O    -1.47142000000E-01  1.59889000000E-01 -6.65410000000E-02

  36  36   1    8 O    -1.92810000000E-02  4.06046000000E-01 -2.50069000000E-01

  37  37   1    8 O    -2.15812000000E-01  2.26287000000E-01 -1.76290000000E-01

  38  38   1    8 O     3.68329000000E-01 -2.40616000000E-01 -4.84930000000E-02

  39  39   1    8 O    -4.07769000000E-01 -4.18787000000E-01 -5.88740000000E-02

  40  40   1    8 O     2.11460000000E-02  1.88168000000E-01 -1.51040000000E-01

  41  41   1    8 O    -2.86678000000E-01  3.54595000000E-01 -6.54610000000E-02

  42  42   1    8 O     3.44839000000E-01  9.13630000000E-02 -9.30600000000E-02

  43  43   1    8 O     4.24487000000E-01 -1.10840000000E-02 -2.88500000000E-01

  44  44   1    8 O    -4.81669000000E-01  3.80245000000E-01 -2.75385000000E-01

  45  45   1    8 O     8.35040000000E-02  8.99890000000E-02 -4.29130000000E-02

  46  46   1    8 O     2.29963000000E-01 -1.42517000000E-01 -2.41099000000E-01

  47  47   1    8 O    -4.28481000000E-01  4.26866000000E-01 -1.59020000000E-01

  48  48   1    8 O    -3.15465000000E-01 -3.36486000000E-01 -1.68646000000E-01

  49  49   1    8 O    -9.87560000000E-02 -4.90959000000E-01 -1.26193000000E-01

  50  50   1    8 O     3.48122000000E-01  4.04790000000E-01 -1.85541000000E-01

  51  51   1    8 O     8.09890000000E-02 -4.04912000000E-01 -5.01280000000E-02

  52  52   1    8 O     1.56529000000E-01 -1.50156000000E-01 -4.41260000000E-02

  53  53   1    8 O     1.12436000000E-01 -2.71514000000E-01 -1.48071000000E-01

  54  54   1    8 O    -1.89110000000E-02 -1.41448000000E-01 -2.07316000000E-01

  55  55   1    8 O    -1.52155000000E-01  2.58247000000E-01 -3.31179000000E-01

  56  56   1    8 O     2.20576000000E-01  6.65310000000E-02 -3.17884000000E-01

  57  57   1   14 SI    5.43870000000E-02  2.97690000000E-02  2.99430000000E-02

  58  58   1   14 SI    3.31162000000E-01  3.03302000000E-01  1.23670000000E-02

  59  59   1   14 SI    2.10728000000E-01  4.17680000000E-01  8.32430000000E-02

  60  60   1   14 SI    4.49678000000E-01  1.81648000000E-01  8.46410000000E-02

  61  61   1   14 SI    7.52540000000E-02  3.02358000000E-01  1.47158000000E-01

  62  62   1   14 SI    3.24156000000E-01  5.88660000000E-02  1.51415000000E-01

  63  63   1   14 SI    1.92493000000E-01  1.79544000000E-01  2.17053000000E-01

  64  64   1   14 SI    4.48424000000E-01  4.33202000000E-01  2.14946000000E-01

  65  65   1   14 SI    1.26844000000E-01 -4.00406000000E-01  3.37770000000E-02

  66  66   1   14 SI    2.75166000000E-01 -2.30834000000E-01  1.29590000000E-02

  67  67   1   14 SI    2.06142000000E-01 -7.16490000000E-02  8.71830000000E-02

  68  68   1   14 SI    4.44202000000E-01 -3.17886000000E-01  7.75880000000E-02

  69  69   1   14 SI    7.34320000000E-02 -1.88283000000E-01  1.53783000000E-01

  70  70   1   14 SI    3.24738000000E-01 -4.44120000000E-01  1.49241000000E-01

  71  71   1   14 SI    1.94329000000E-01 -3.23064000000E-01  2.16050000000E-01

  72  72   1   14 SI    4.49386000000E-01 -7.85260000000E-02  2.08489000000E-01

  73  73   1   14 SI   -4.51565000000E-01  1.54980000000E-02  2.65870000000E-02

  74  74   1   14 SI   -1.99067000000E-01  4.36169000000E-01 -1.61740000000E-02

  75  75   1   14 SI   -3.02620000000E-01  4.29431000000E-01  8.30720000000E-02

  76  76   1   14 SI   -5.87430000000E-02  1.83847000000E-01  8.54060000000E-02

  77  77   1   14 SI   -4.28313000000E-01  3.07972000000E-01  1.49255000000E-01

  78  78   1   14 SI   -1.73049000000E-01  4.83560000000E-02  1.48619000000E-01

  79  79   1   14 SI   -3.01527000000E-01  1.73993000000E-01  2.10814000000E-01

  80  80   1   14 SI   -4.85220000000E-02  4.27264000000E-01  2.11904000000E-01

  81  81   1   14 SI   -3.80139000000E-01 -3.86077000000E-01  1.54900000000E-02

  82  82   1   14 SI   -1.71303000000E-01 -2.32740000000E-01  1.11730000000E-02

  83  83   1   14 SI   -2.81752000000E-01 -7.08380000000E-02  7.45810000000E-02

  84  84   1   14 SI   -4.44280000000E-02 -3.19068000000E-01  8.76120000000E-02

  85  85   1   14 SI   -4.24206000000E-01 -1.94740000000E-01  1.39729000000E-01

  86  86   1   14 SI   -1.77790000000E-01 -4.46457000000E-01  1.48992000000E-01

  87  87   1   14 SI   -3.04069000000E-01 -3.13870000000E-01  2.12957000000E-01

  88  88   1   14 SI   -5.22830000000E-02 -6.61720000000E-02  2.19644000000E-01

  89  89   1   14 SI    6.61770000000E-02  5.93630000000E-02  2.87100000000E-01

  90  90   1   14 SI    3.17702000000E-01  3.11451000000E-01  2.77547000000E-01

  91  91   1   14 SI    6.79970000000E-02 -4.46657000000E-01  2.81512000000E-01

  92  92   1   14 SI    3.19918000000E-01 -1.92640000000E-01  2.76935000000E-01

  93  93   1   14 SI   -4.30508000000E-01  4.51810000000E-02  2.72313000000E-01

  94  94   1   14 SI   -1.70366000000E-01  2.96364000000E-01  2.73444000000E-01

  95  95   1   14 SI   -4.29229000000E-01 -4.38994000000E-01  2.79980000000E-01

  96  96   1   14 SI   -1.80652000000E-01 -1.91192000000E-01  2.81503000000E-01

  97  97   1   14 SI    1.93042000000E-01  4.27601000000E-01  3.46497000000E-01

  98  98   1   14 SI    4.43245000000E-01  1.73313000000E-01  3.32943000000E-01

  99  99   1   14 SI    6.37090000000E-02  3.17842000000E-01  4.16313000000E-01

 100 100   1   14 SI    3.21136000000E-01  6.95030000000E-02  4.05432000000E-01

 101 101   1   14 SI    2.09029000000E-01  2.06519000000E-01  4.72608000000E-01

 102 102   1   14 SI    4.95040000000E-01  4.30687000000E-01  4.45594000000E-01

 103 103   1   14 SI    1.96682000000E-01 -7.20440000000E-02  3.46641000000E-01

 104 104   1   14 SI    4.36007000000E-01 -3.18137000000E-01  3.44810000000E-01

 105 105   1   14 SI    7.91200000000E-02 -2.11330000000E-01  4.07262000000E-01

 106 106   1   14 SI    3.14684000000E-01 -4.47878000000E-01  4.13446000000E-01

 107 107   1   14 SI    1.47968000000E-01 -3.69959000000E-01  4.77249000000E-01

 108 108   1   14 SI    4.72321000000E-01 -2.16510000000E-02  4.64105000000E-01

 109 109   1   14 SI   -2.91530000000E-01  4.25678000000E-01  3.35078000000E-01

 110 110   1   14 SI   -6.17380000000E-02  1.87782000000E-01  3.53344000000E-01

 111 111   1   14 SI   -4.02240000000E-01  2.68599000000E-01  3.88730000000E-01

 112 112   1   14 SI   -2.38508000000E-01  1.07935000000E-01  4.03988000000E-01

 113 113   1   14 SI   -3.43018000000E-01  8.56130000000E-02  4.95024000000E-01

 114 114   1   14 SI   -1.77680000000E-02  4.77267000000E-01  4.85491000000E-01

 115 115   1   14 SI   -3.11325000000E-01 -6.78330000000E-02  3.44228000000E-01

 116 116   1   14 SI   -6.09610000000E-02 -3.20767000000E-01  3.45977000000E-01

 117 117   1   14 SI   -4.35003000000E-01 -1.98808000000E-01  4.08324000000E-01

 118 118   1   14 SI   -1.69122000000E-01 -4.64969000000E-01  4.09712000000E-01

 119 119   1   14 SI   -3.58811000000E-01 -4.04339000000E-01  4.47151000000E-01

 120 120   1   14 SI    8.37920000000E-02  7.08250000000E-02 -4.13029000000E-01

 121 121   1   14 SI   -1.95899000000E-01  1.02680000000E-01 -3.34696000000E-01

 122 122   1   14 SI    2.11168000000E-01  2.27535000000E-01 -3.31751000000E-01

 123 123   1   14 SI   -3.53086000000E-01 -4.05626000000E-01 -4.45086000000E-01

 124 124   1   14 SI    2.44343000000E-01 -3.38538000000E-01 -3.85507000000E-01

 125 125   1   14 SI   -8.00850000000E-02 -3.62064000000E-01 -4.04697000000E-01

 126 126   1   14 SI   -3.98043000000E-01  2.90123000000E-01 -4.06706000000E-01

 127 127   1   14 SI   -4.48087000000E-01 -1.29508000000E-01 -4.29506000000E-01

 128 128   1   14 SI   -1.14784000000E-01 -7.80660000000E-02 -4.42320000000E-01

 129 129   1   14 SI    3.52205000000E-01  3.77680000000E-01 -4.27536000000E-01

 130 130   1   14 SI    2.54480000000E-02  4.73424000000E-01 -9.91510000000E-02

 131 131   1   14 SI   -4.32407000000E-01 -4.10620000000E-02 -2.97990000000E-01

 132 132   1   14 SI    4.79401000000E-01  8.20430000000E-02 -1.28520000000E-01

 133 133   1   14 SI    2.24780000000E-01 -5.65900000000E-03 -1.11956000000E-01

 134 134   1   14 SI    3.92849000000E-01 -2.00625000000E-01 -1.21289000000E-01

 135 135   1   14 SI   -3.26198000000E-01 -2.70534000000E-01 -2.37337000000E-01

 136 136   1   14 SI    1.21157000000E-01  4.50852000000E-01 -2.36489000000E-01

 137 137   1   14 SI   -2.64919000000E-01  2.20932000000E-01 -1.05083000000E-01

 138 138   1   14 SI   -5.22200000000E-03  1.96457000000E-01 -7.73500000000E-02

 139 139   1   14 SI   -1.19826000000E-01  4.08214000000E-01 -3.06325000000E-01

 140 140   1   14 SI   -7.99650000000E-02  1.82886000000E-01 -2.08478000000E-01

 141 141   1   14 SI    4.79652000000E-01  3.43146000000E-01 -2.03996000000E-01

 142 142   1   14 SI    2.93238000000E-01  4.68706000000E-01 -1.21185000000E-01

 143 143   1   14 SI    2.90710000000E-01 -7.60300000000E-02 -3.02469000000E-01

 144 144   1   14 SI    1.05393000000E-01 -2.35458000000E-01 -2.28068000000E-01

 145 145   1   14 SI   -8.29080000000E-02 -1.54468000000E-01 -2.75748000000E-01

 146 146   1   14 SI   -3.86438000000E-01  4.89961000000E-01 -3.03940000000E-01

 147 147   1   14 SI    5.63140000000E-02 -2.45281000000E-01 -7.98290000000E-02

 148 148   1   14 SI   -4.19944000000E-01 -4.20669000000E-01 -1.33458000000E-01

 NUMBER OF SYMMETRY OPERATORS         :    1
 *******************************************************************************
 * GEOMETRY EDITING - INPUT COORDINATES ARE GIVEN IN ANGSTROM         
 *******************************************************************************

 GCALCO - MAX INDICES DIRECT LATTICE VECTOR    18    19     9
 NO.OF VECTORS CREATED 6999 STARS 1063 RMAX   301.56757 BOHR

 GEOMETRY FOR WAVE FUNCTION - DIMENSIONALITY OF THE SYSTEM    3
 (NON PERIODIC DIRECTION: LATTICE PARAMETER FORMALLY SET TO 500)
 *******************************************************************************
 LATTICE PARAMETERS (ANGSTROMS AND DEGREES) - BOHR = 0.5291772083 ANGSTROM
 PRIMITIVE CELL - CENTRING CODE 1/0 VOLUME=  2450.925990 - DENSITY  2.351 g/cm^3
         A              B              C           ALPHA      BETA       GAMMA 
    11.09810000    10.18390000    21.68540000    90.000000  90.000000  90.000000
 *******************************************************************************
 ATOMS IN THE ASYMMETRIC UNIT  148 - ATOMS IN THE UNIT CELL:  148
     ATOM              X/A                 Y/B                 Z/C    
 *******************************************************************************
   1 T   8 O    -4.336570000000E-01 -1.393790000000E-01 -3.563470000000E-01
   2 T   8 O     3.317710000000E-01  2.739360000000E-01 -3.706960000000E-01
   3 T   8 O    -3.192180000000E-01  2.189630000000E-01 -4.619110000000E-01
   4 T   8 O     3.344950000000E-01 -4.703200000000E-01 -4.042830000000E-01
   5 T   8 O    -3.411250000000E-01  8.131500000000E-02 -3.163630000000E-01
   6 T   8 O    -2.113180000000E-01 -3.915700000000E-01 -4.354920000000E-01
   7 T   8 O    -3.929340000000E-01 -4.899840000000E-01 -3.803830000000E-01
   8 T   8 O     4.331910000000E-01 -6.574900000000E-02 -4.623930000000E-01
   9 T   8 O     1.582260000000E-01  9.765400000000E-02 -4.774700000000E-01
  10 T   8 O     9.498600000000E-02  2.231900000000E-01 -3.783850000000E-01
  11 T   8 O    -3.319240000000E-01 -4.446600000000E-02 -4.556030000000E-01
  12 T   8 O    -1.561390000000E-01  6.128500000000E-02 -4.042290000000E-01
  13 T   8 O    -6.461700000000E-02 -4.803060000000E-01 -3.523570000000E-01
  14 T   8 O     4.918470000000E-01  3.606790000000E-01 -4.564260000000E-01
  15 T   8 O     2.774210000000E-01  3.260540000000E-01 -4.877340000000E-01
  16 T   8 O     2.962800000000E-01 -1.926970000000E-01 -3.572960000000E-01
  17 T   8 O    -4.445040000000E-01 -2.815830000000E-01 -4.480240000000E-01
  18 T   8 O     1.831240000000E-01 -3.076640000000E-01 -4.532330000000E-01
  19 T   8 O    -1.132300000000E-01 -2.007200000000E-01 -3.880360000000E-01
  20 T   8 O     4.141500000000E-02  3.422880000000E-01 -5.524300000000E-02
  21 T   8 O     1.969790000000E-01  3.356670000000E-01 -2.749560000000E-01
  22 T   8 O     1.373830000000E-01  4.440110000000E-01 -1.552850000000E-01
  23 T   8 O     4.683180000000E-01  1.844250000000E-01 -1.894050000000E-01
  24 T   8 O    -3.904450000000E-01  1.341660000000E-01 -1.002440000000E-01
  25 T   8 O    -2.503540000000E-01  4.573870000000E-01 -2.819050000000E-01
  26 T   8 O    -7.953900000000E-02 -2.063100000000E-01 -5.379000000000E-02
  27 T   8 O     4.527060000000E-01 -3.394790000000E-01 -1.497530000000E-01
  28 T   8 O     1.520440000000E-01 -3.968530000000E-01 -2.471010000000E-01
  29 T   8 O    -4.183990000000E-01 -3.671590000000E-01 -2.755670000000E-01
  30 T   8 O     4.910180000000E-01 -7.858100000000E-02 -1.354040000000E-01
  31 T   8 O    -1.281740000000E-01 -7.778000000000E-03 -2.933700000000E-01
  32 T   8 O     4.085800000000E-02 -2.228720000000E-01 -3.026990000000E-01
  33 T   8 O    -3.849160000000E-01 -1.233520000000E-01 -2.385560000000E-01
  34 T   8 O    -1.968520000000E-01 -2.568590000000E-01 -2.709080000000E-01
  35 T   8 O    -1.471420000000E-01  1.598890000000E-01 -6.654100000000E-02
  36 T   8 O    -1.928100000000E-02  4.060460000000E-01 -2.500690000000E-01
  37 T   8 O    -2.158120000000E-01  2.262870000000E-01 -1.762900000000E-01
  38 T   8 O     3.683290000000E-01 -2.406160000000E-01 -4.849300000000E-02
  39 T   8 O    -4.077690000000E-01 -4.187870000000E-01 -5.887400000000E-02
  40 T   8 O     2.114600000000E-02  1.881680000000E-01 -1.510400000000E-01
  41 T   8 O    -2.866780000000E-01  3.545950000000E-01 -6.546100000000E-02
  42 T   8 O     3.448390000000E-01  9.136300000000E-02 -9.306000000000E-02
  43 T   8 O     4.244870000000E-01 -1.108400000000E-02 -2.885000000000E-01
  44 T   8 O    -4.816690000000E-01  3.802450000000E-01 -2.753850000000E-01
  45 T   8 O     8.350400000000E-02  8.998900000000E-02 -4.291300000000E-02
  46 T   8 O     2.299630000000E-01 -1.425170000000E-01 -2.410990000000E-01
  47 T   8 O    -4.284810000000E-01  4.268660000000E-01 -1.590200000000E-01
  48 T   8 O    -3.154650000000E-01 -3.364860000000E-01 -1.686460000000E-01
  49 T   8 O    -9.875600000000E-02 -4.909590000000E-01 -1.261930000000E-01
  50 T   8 O     3.481220000000E-01  4.047900000000E-01 -1.855410000000E-01
  51 T   8 O     8.098900000000E-02 -4.049120000000E-01 -5.012800000000E-02
  52 T   8 O     1.565290000000E-01 -1.501560000000E-01 -4.412600000000E-02
  53 T   8 O     1.124360000000E-01 -2.715140000000E-01 -1.480710000000E-01
  54 T   8 O    -1.891100000000E-02 -1.414480000000E-01 -2.073160000000E-01
  55 T   8 O    -1.521550000000E-01  2.582470000000E-01 -3.311790000000E-01
  56 T   8 O     2.205760000000E-01  6.653100000000E-02 -3.178840000000E-01
  57 T  14 SI    5.438700000000E-02  2.976900000000E-02  2.994300000000E-02
  58 T  14 SI    3.311620000000E-01  3.033020000000E-01  1.236700000000E-02
  59 T  14 SI    2.107280000000E-01  4.176800000000E-01  8.324300000000E-02
  60 T  14 SI    4.496780000000E-01  1.816480000000E-01  8.464100000000E-02
  61 T  14 SI    7.525400000000E-02  3.023580000000E-01  1.471580000000E-01
  62 T  14 SI    3.241560000000E-01  5.886600000000E-02  1.514150000000E-01
  63 T  14 SI    1.924930000000E-01  1.795440000000E-01  2.170530000000E-01
  64 T  14 SI    4.484240000000E-01  4.332020000000E-01  2.149460000000E-01
  65 T  14 SI    1.268440000000E-01 -4.004060000000E-01  3.377700000000E-02
  66 T  14 SI    2.751660000000E-01 -2.308340000000E-01  1.295900000000E-02
  67 T  14 SI    2.061420000000E-01 -7.164900000000E-02  8.718300000000E-02
  68 T  14 SI    4.442020000000E-01 -3.178860000000E-01  7.758800000000E-02
  69 T  14 SI    7.343200000000E-02 -1.882830000000E-01  1.537830000000E-01
  70 T  14 SI    3.247380000000E-01 -4.441200000000E-01  1.492410000000E-01
  71 T  14 SI    1.943290000000E-01 -3.230640000000E-01  2.160500000000E-01
  72 T  14 SI    4.493860000000E-01 -7.852600000000E-02  2.084890000000E-01
  73 T  14 SI   -4.515650000000E-01  1.549800000000E-02  2.658700000000E-02
  74 T  14 SI   -1.990670000000E-01  4.361690000000E-01 -1.617400000000E-02
  75 T  14 SI   -3.026200000000E-01  4.294310000000E-01  8.307200000000E-02
  76 T  14 SI   -5.874300000000E-02  1.838470000000E-01  8.540600000000E-02
  77 T  14 SI   -4.283130000000E-01  3.079720000000E-01  1.492550000000E-01
  78 T  14 SI   -1.730490000000E-01  4.835600000000E-02  1.486190000000E-01
  79 T  14 SI   -3.015270000000E-01  1.739930000000E-01  2.108140000000E-01
  80 T  14 SI   -4.852200000000E-02  4.272640000000E-01  2.119040000000E-01
  81 T  14 SI   -3.801390000000E-01 -3.860770000000E-01  1.549000000000E-02
  82 T  14 SI   -1.713030000000E-01 -2.327400000000E-01  1.117300000000E-02
  83 T  14 SI   -2.817520000000E-01 -7.083800000000E-02  7.458100000000E-02
  84 T  14 SI   -4.442800000000E-02 -3.190680000000E-01  8.761200000000E-02
  85 T  14 SI   -4.242060000000E-01 -1.947400000000E-01  1.397290000000E-01
  86 T  14 SI   -1.777900000000E-01 -4.464570000000E-01  1.489920000000E-01
  87 T  14 SI   -3.040690000000E-01 -3.138700000000E-01  2.129570000000E-01
  88 T  14 SI   -5.228300000000E-02 -6.617200000000E-02  2.196440000000E-01
  89 T  14 SI    6.617700000000E-02  5.936300000000E-02  2.871000000000E-01
  90 T  14 SI    3.177020000000E-01  3.114510000000E-01  2.775470000000E-01
  91 T  14 SI    6.799700000000E-02 -4.466570000000E-01  2.815120000000E-01
  92 T  14 SI    3.199180000000E-01 -1.926400000000E-01  2.769350000000E-01
  93 T  14 SI   -4.305080000000E-01  4.518100000000E-02  2.723130000000E-01
  94 T  14 SI   -1.703660000000E-01  2.963640000000E-01  2.734440000000E-01
  95 T  14 SI   -4.292290000000E-01 -4.389940000000E-01  2.799800000000E-01
  96 T  14 SI   -1.806520000000E-01 -1.911920000000E-01  2.815030000000E-01
  97 T  14 SI    1.930420000000E-01  4.276010000000E-01  3.464970000000E-01
  98 T  14 SI    4.432450000000E-01  1.733130000000E-01  3.329430000000E-01
  99 T  14 SI    6.370900000000E-02  3.178420000000E-01  4.163130000000E-01
 100 T  14 SI    3.211360000000E-01  6.950300000000E-02  4.054320000000E-01
 101 T  14 SI    2.090290000000E-01  2.065190000000E-01  4.726080000000E-01
 102 T  14 SI    4.950400000000E-01  4.306870000000E-01  4.455940000000E-01
 103 T  14 SI    1.966820000000E-01 -7.204400000000E-02  3.466410000000E-01
 104 T  14 SI    4.360070000000E-01 -3.181370000000E-01  3.448100000000E-01
 105 T  14 SI    7.912000000000E-02 -2.113300000000E-01  4.072620000000E-01
 106 T  14 SI    3.146840000000E-01 -4.478780000000E-01  4.134460000000E-01
 107 T  14 SI    1.479680000000E-01 -3.699590000000E-01  4.772490000000E-01
 108 T  14 SI    4.723210000000E-01 -2.165100000000E-02  4.641050000000E-01
 109 T  14 SI   -2.915300000000E-01  4.256780000000E-01  3.350780000000E-01
 110 T  14 SI   -6.173800000000E-02  1.877820000000E-01  3.533440000000E-01
 111 T  14 SI   -4.022400000000E-01  2.685990000000E-01  3.887300000000E-01
 112 T  14 SI   -2.385080000000E-01  1.079350000000E-01  4.039880000000E-01
 113 T  14 SI   -3.430180000000E-01  8.561300000000E-02  4.950240000000E-01
 114 T  14 SI   -1.776800000000E-02  4.772670000000E-01  4.854910000000E-01
 115 T  14 SI   -3.113250000000E-01 -6.783300000000E-02  3.442280000000E-01
 116 T  14 SI   -6.096100000000E-02 -3.207670000000E-01  3.459770000000E-01
 117 T  14 SI   -4.350030000000E-01 -1.988080000000E-01  4.083240000000E-01
 118 T  14 SI   -1.691220000000E-01 -4.649690000000E-01  4.097120000000E-01
 119 T  14 SI   -3.588110000000E-01 -4.043390000000E-01  4.471510000000E-01
 120 T  14 SI    8.379200000000E-02  7.082500000000E-02 -4.130290000000E-01
 121 T  14 SI   -1.958990000000E-01  1.026800000000E-01 -3.346960000000E-01
 122 T  14 SI    2.111680000000E-01  2.275350000000E-01 -3.317510000000E-01
 123 T  14 SI   -3.530860000000E-01 -4.056260000000E-01 -4.450860000000E-01
 124 T  14 SI    2.443430000000E-01 -3.385380000000E-01 -3.855070000000E-01
 125 T  14 SI   -8.008500000000E-02 -3.620640000000E-01 -4.046970000000E-01
 126 T  14 SI   -3.980430000000E-01  2.901230000000E-01 -4.067060000000E-01
 127 T  14 SI   -4.480870000000E-01 -1.295080000000E-01 -4.295060000000E-01
 128 T  14 SI   -1.147840000000E-01 -7.806600000000E-02 -4.423200000000E-01
 129 T  14 SI    3.522050000000E-01  3.776800000000E-01 -4.275360000000E-01
 130 T  14 SI    2.544800000000E-02  4.734240000000E-01 -9.915100000000E-02
 131 T  14 SI   -4.324070000000E-01 -4.106200000000E-02 -2.979900000000E-01
 132 T  14 SI    4.794010000000E-01  8.204300000000E-02 -1.285200000000E-01
 133 T  14 SI    2.247800000000E-01 -5.659000000000E-03 -1.119560000000E-01
 134 T  14 SI    3.928490000000E-01 -2.006250000000E-01 -1.212890000000E-01
 135 T  14 SI   -3.261980000000E-01 -2.705340000000E-01 -2.373370000000E-01
 136 T  14 SI    1.211570000000E-01  4.508520000000E-01 -2.364890000000E-01
 137 T  14 SI   -2.649190000000E-01  2.209320000000E-01 -1.050830000000E-01
 138 T  14 SI   -5.222000000000E-03  1.964570000000E-01 -7.735000000000E-02
 139 T  14 SI   -1.198260000000E-01  4.082140000000E-01 -3.063250000000E-01
 140 T  14 SI   -7.996500000000E-02  1.828860000000E-01 -2.084780000000E-01
 141 T  14 SI    4.796520000000E-01  3.431460000000E-01 -2.039960000000E-01
 142 T  14 SI    2.932380000000E-01  4.687060000000E-01 -1.211850000000E-01
 143 T  14 SI    2.907100000000E-01 -7.603000000000E-02 -3.024690000000E-01
 144 T  14 SI    1.053930000000E-01 -2.354580000000E-01 -2.280680000000E-01
 145 T  14 SI   -8.290800000000E-02 -1.544680000000E-01 -2.757480000000E-01
 146 T  14 SI   -3.864380000000E-01  4.899610000000E-01 -3.039400000000E-01
 147 T  14 SI    5.631400000000E-02 -2.452810000000E-01 -7.982900000000E-02
 148 T  14 SI   -4.199440000000E-01 -4.206690000000E-01 -1.334580000000E-01

 T = ATOM BELONGING TO THE ASYMMETRIC UNIT

 ****   1 SYMMOPS - TRANSLATORS IN FRACTIONAL UNITS
  V INV                   ROTATION MATRICES                       TRANSLATOR
  1  1  1.00  0.00  0.00  0.00  1.00  0.00  0.00  0.00  1.00    0.00  0.00  0.00

 DIRECT LATTICE VECTORS CARTESIAN COMPONENTS (ANGSTROM)
          X                    Y                    Z
   0.110981000000E+02   0.679562632081E-15   0.000000000000E+00
   0.000000000000E+00   0.101839000000E+02   0.000000000000E+00
   0.132784778491E-14   0.132784778491E-14   0.216854000000E+02


 CARTESIAN COORDINATES - PRIMITIVE CELL
 *******************************************************************************
 *      ATOM          X(ANGSTROM)         Y(ANGSTROM)         Z(ANGSTROM)
 *******************************************************************************
   1     8 O    -4.812768751700E+00 -1.419421798100E+00 -7.727527233800E+00
   2     8 O     3.682027735100E+00  2.789736830400E+00 -8.038691038400E+00
   3     8 O    -3.542713285800E+00  2.229897295700E+00 -1.001672479940E+01
   4     8 O     3.712258959500E+00 -4.789691848000E+00 -8.767038568200E+00
   5     8 O    -3.785839362500E+00  8.281038285000E-01 -6.860458200200E+00
   6     8 O    -2.345228295800E+00 -3.987709723000E+00 -9.443818216800E+00
   7     8 O    -4.360820825400E+00 -4.989948057600E+00 -8.248757508200E+00
   8     8 O     4.807597037100E+00 -6.695812411000E-01 -1.002717716220E+01
   9     8 O     1.756007970600E+00  9.944985706000E-01 -1.035412793800E+01
  10     8 O     1.054164126600E+00  2.272944641000E+00 -8.205430079000E+00
  11     8 O    -3.683725744400E+00 -4.528372974000E-01 -9.879933296200E+00
  12     8 O    -1.732846235900E+00  6.241203115000E-01 -8.765867556600E+00
  13     8 O    -7.171259277000E-01 -4.891388273400E+00 -7.641002487800E+00
  14     8 O     5.458567190700E+00  3.673118868100E+00 -9.897780380400E+00
  15     8 O     3.078846000100E+00  3.320501330600E+00 -1.057670688360E+01
  16     8 O     3.288145068000E+00 -1.962406978300E+00 -7.748106678400E+00
  17     8 O    -4.933149842400E+00 -2.867613113700E+00 -9.715579649600E+00
  18     8 O     2.032328464400E+00 -3.133219409600E+00 -9.828538898200E+00
  19     8 O    -1.256637863000E+00 -2.044112408000E+00 -8.414715874400E+00
  20     8 O     4.596278115000E-01  3.485826763200E+00 -1.197966552200E+00
  21     8 O     2.186092639900E+00  3.418399161300E+00 -5.962530842400E+00
  22     8 O     1.524690272300E+00  4.521763622900E+00 -3.367417339000E+00
  23     8 O     5.197439995800E+00  1.878165757500E+00 -4.107323187000E+00
  24     8 O    -4.333197654500E+00  1.366333127400E+00 -2.173831237600E+00
  25     8 O    -2.778453727400E+00  4.657983469300E+00 -6.113222687000E+00
  26     8 O    -8.827317759000E-01 -2.101040409000E+00 -1.166457666000E+00
  27     8 O     5.024176458600E+00 -3.457220188100E+00 -3.247453706200E+00
  28     8 O     1.687399516400E+00 -4.041511266700E+00 -5.358484025400E+00
  29     8 O    -4.643433941900E+00 -3.739110540100E+00 -5.975780621800E+00
  30     8 O     5.449366865800E+00 -8.002610459000E-01 -2.936289901600E+00
  31     8 O    -1.422487869400E+00 -7.921037420000E-02 -6.361845798000E+00
  32     8 O     4.534461698000E-01 -2.269706160800E+00 -6.564148894600E+00
  33     8 O    -4.271836259600E+00 -1.256204432800E+00 -5.173182282400E+00
  34     8 O    -2.184683181200E+00 -2.615826370100E+00 -5.874748343200E+00
  35     8 O    -1.632996630200E+00  1.628293587100E+00 -1.442968201400E+00
  36     8 O    -2.139824661000E-01  4.135131859400E+00 -5.422846292600E+00
  37     8 O    -2.395103157200E+00  2.304484179300E+00 -3.822919166000E+00
  38     8 O     4.087752074900E+00 -2.450409282400E+00 -1.051590102200E+00
  39     8 O    -4.525461138900E+00 -4.264884929300E+00 -1.276706239600E+00
  40     8 O     2.346804226000E-01  1.916284095200E+00 -3.275362816000E+00
  41     8 O    -3.181581111800E+00  3.611160020500E+00 -1.419547969400E+00
  42     8 O     3.827057705900E+00  9.304316557000E-01 -2.018043324000E+00
  43     8 O     4.710999174700E+00 -1.128783476000E-01 -6.256237900000E+00
  44     8 O    -5.345610728900E+00  3.872377055500E+00 -5.971833879000E+00
  45     8 O     9.267357424000E-01  9.164389771000E-01 -9.305855702000E-01
  46     8 O     2.552152370300E+00 -1.451378876300E+00 -5.228328254600E+00
  47     8 O    -4.755324986100E+00  4.347160657400E+00 -3.448412308000E+00
  48     8 O    -3.501062116500E+00 -3.426739775400E+00 -3.657155968400E+00
  49     8 O    -1.096003963600E+00 -4.999877360100E+00 -2.736545682200E+00
  50     8 O     3.863492768200E+00  4.122340881000E+00 -4.023530801400E+00
  51     8 O     8.988240209000E-01 -4.123583316800E+00 -1.087045731200E+00
  52     8 O     1.737174494900E+00 -1.529173688400E+00 -9.568899604000E-01
  53     8 O     1.247825971600E+00 -2.765071424600E+00 -3.210978863400E+00
  54     8 O    -2.098761691000E-01 -1.440492287200E+00 -4.495730386400E+00
  55     8 O    -1.688631405500E+00  2.629961623300E+00 -7.181749086600E+00
  56     8 O     2.447974505600E+00  6.775450509000E-01 -6.893441693600E+00
  57    14 SI    6.035923647000E-01  3.031645191000E-01  6.493259322000E-01
  58    14 SI    3.675268992200E+00  3.088797237800E+00  2.681833418000E-01
  59    14 SI    2.338680416800E+00  4.253611352000E+00  1.805157752200E+00
  60    14 SI    4.990571411800E+00  1.849885067200E+00  1.835473941400E+00
  61    14 SI    8.351764174000E-01  3.079183636200E+00  3.191180093200E+00
  62    14 SI    3.597515703600E+00  5.994854574000E-01  3.283494841000E+00
  63    14 SI    2.136306563300E+00  1.828458141600E+00  4.706881126200E+00
  64    14 SI    4.976654394400E+00  4.411685847800E+00  4.661189988400E+00
  65    14 SI    1.407727396400E+00 -4.077694663400E+00  7.324677558000E-01
  66    14 SI    3.053819784600E+00 -2.350790372600E+00  2.810210986000E-01
  67    14 SI    2.287784530200E+00 -7.296662511000E-01  1.890598228200E+00
  68    14 SI    4.929798216200E+00 -3.237319235400E+00  1.682526815200E+00
  69    14 SI    8.149556792000E-01 -1.917455243700E+00  3.334845868200E+00
  70    14 SI    3.603974797800E+00 -4.522873668000E+00  3.236350781400E+00
  71    14 SI    2.156682674900E+00 -3.290051469600E+00  4.685130670000E+00
  72    14 SI    4.987330766600E+00 -7.997009314000E-01  4.521167360600E+00
  73    14 SI   -5.011513526500E+00  1.578300822000E-01  5.765497298000E-01
  74    14 SI   -2.209265472700E+00  4.441901479100E+00 -3.507396596000E-01
  75    14 SI   -3.358507022000E+00  4.373282360900E+00  1.801449548800E+00
  76    14 SI   -6.519356883000E-01  1.872279463300E+00  1.852063272400E+00
  77    14 SI   -4.753460505300E+00  3.136356050800E+00  3.236654377000E+00
  78    14 SI   -1.920515106900E+00  4.924526684000E-01  3.222862462600E+00
  79    14 SI   -3.346376798700E+00  1.771927312700E+00  4.571585915600E+00
  80    14 SI   -5.385020082000E-01  4.351213849600E+00  4.595223001600E+00
  81    14 SI   -4.218820635900E+00 -3.931769560300E+00  3.359068460000E-01
  82    14 SI   -1.901137824300E+00 -2.370200886000E+00  2.422909742000E-01
  83    14 SI   -3.126911871200E+00 -7.214071082000E-01  1.617318817400E+00
  84    14 SI   -4.930663868000E-01 -3.249356605200E+00  1.899901264800E+00
  85    14 SI   -4.707880608600E+00 -1.983212686000E+00  3.030079256600E+00
  86    14 SI   -1.973131199000E+00 -4.546673442300E+00  3.230951116800E+00
  87    14 SI   -3.374588168900E+00 -3.196420693000E+00  4.618057727800E+00
  88    14 SI   -5.802419623000E-01 -6.738890308000E-01  4.763067997600E+00
  89    14 SI    7.344389637000E-01  6.045468557000E-01  6.225878340000E+00
  90    14 SI    3.525888566200E+00  3.171785838900E+00  6.018717713800E+00
  91    14 SI    7.546375057000E-01 -4.548710222300E+00  6.104700324800E+00
  92    14 SI    3.550481955800E+00 -1.961826496000E+00  6.005446249000E+00
  93    14 SI   -4.777820834800E+00  4.601187859000E-01  5.905216330200E+00
  94    14 SI   -1.890738904600E+00  3.018141339600E+00  5.929742517600E+00
  95    14 SI   -4.763626364900E+00 -4.470670996600E+00  6.071478292000E+00
  96    14 SI   -2.004893961200E+00 -1.947080208800E+00  6.104505156200E+00
  97    14 SI    2.142399420200E+00  4.354645823900E+00  7.513926043800E+00
  98    14 SI    4.919177334500E+00  1.765002260700E+00  7.220002132200E+00
  99    14 SI    7.070488529000E-01  3.236871143800E+00  9.027913930200E+00
 100    14 SI    3.563999441600E+00  7.078116017000E-01  8.791955092800E+00
 101    14 SI    2.319824744900E+00  2.103168844100E+00  1.024869352320E+01
 102    14 SI    5.494003424000E+00  4.386073339300E+00  9.662884127600E+00
 103    14 SI    2.182796504200E+00 -7.336888916000E-01  7.517048741400E+00
 104    14 SI    4.838849286700E+00 -3.239875394300E+00  7.477342774000E+00
 105    14 SI    8.780816720000E-01 -2.152163587000E+00  8.831639374800E+00
 106    14 SI    3.492394500400E+00 -4.561144764200E+00  8.965741888400E+00
 107    14 SI    1.642163660800E+00 -3.767625460100E+00  1.034933546460E+01
 108    14 SI    5.241865690100E+00 -2.204916189000E-01  1.006430256700E+01
 109    14 SI   -3.235429093000E+00  4.335062184200E+00  7.266300461200E+00
 110    14 SI   -6.851744978000E-01  1.912353109800E+00  7.662405977600E+00
 111    14 SI   -4.464099744000E+00  2.735385356100E+00  8.429765542000E+00
 112    14 SI   -2.646985634800E+00  1.099199246500E+00  8.760641375200E+00
 113    14 SI   -3.806848065800E+00  8.718742307000E-01  1.073479344960E+01
 114    14 SI   -1.971910408000E-01  4.860439401300E+00  1.052806653140E+01
 115    14 SI   -3.455115982500E+00 -6.908044887000E-01  7.464721871200E+00
 116    14 SI   -6.765512741000E-01 -3.266659051300E+00  7.502649635800E+00
 117    14 SI   -4.827706794300E+00 -2.024640791200E+00  8.854669269600E+00
 118    14 SI   -1.876932868200E+00 -4.735197799100E+00  8.884768604800E+00
 119    14 SI   -3.982120359100E+00 -4.117747942100E+00  9.696648295400E+00
 120    14 SI    9.299319952000E-01  7.212747175000E-01 -8.956699076600E+00
 121    14 SI   -2.174106691900E+00  1.045682852000E+00 -7.258016638400E+00
 122    14 SI    2.343563580800E+00  2.317193686500E+00 -7.194153135400E+00
 123    14 SI   -3.918583736600E+00 -4.130854621400E+00 -9.651867944400E+00
 124    14 SI    2.711743048300E+00 -3.447637138200E+00 -8.359873497800E+00
 125    14 SI   -8.887913385000E-01 -3.687223569600E+00 -8.776016323800E+00
 126    14 SI   -4.417521018300E+00  2.954583619700E+00 -8.819582292400E+00
 127    14 SI   -4.972914334700E+00 -1.318896521200E+00 -9.314009412400E+00
 128    14 SI   -1.273884310400E+00 -7.950163374000E-01 -9.591886128000E+00
 129    14 SI    3.908806310500E+00  3.846255352000E+00 -9.271289174400E+00
 130    14 SI    2.824244488000E-01  4.821302673600E+00 -2.150129095400E+00
 131    14 SI   -4.798896126700E+00 -4.181713018000E-01 -6.462032346000E+00
 132    14 SI    5.320440238100E+00  8.355177077000E-01 -2.787007608000E+00
 133    14 SI    2.494630918000E+00 -5.763069010000E-02 -2.427810642400E+00
 134    14 SI    4.359877486900E+00 -2.043144937500E+00 -2.630200480600E+00
 135    14 SI   -3.620178023800E+00 -2.755091202600E+00 -5.146747779800E+00
 136    14 SI    1.344612501700E+00  4.591431682800E+00 -5.128358560600E+00
 137    14 SI   -2.940097553900E+00  2.249949394800E+00 -2.278766888200E+00
 138    14 SI   -5.795427820000E-02  2.000698442300E+00 -1.677365690000E+00
 139    14 SI   -1.329840930600E+00  4.157210554600E+00 -6.642780155000E+00
 140    14 SI   -8.874595665000E-01  1.862492735400E+00 -4.520928821200E+00
 141    14 SI    5.323225861200E+00  3.494564549400E+00 -4.423734858400E+00
 142    14 SI    3.254384647800E+00  4.773255033400E+00 -2.627945199000E+00
 143    14 SI    3.226328651000E+00 -7.742819170000E-01 -6.559161252600E+00
 144    14 SI    1.169662053300E+00 -2.397880726200E+00 -4.945745807200E+00
 145    14 SI   -9.201212748000E-01 -1.573086665200E+00 -5.979705679200E+00
 146    14 SI   -4.288727567800E+00  4.989713827900E+00 -6.591060476000E+00
 147    14 SI    6.249784034000E-01 -2.497917175900E+00 -1.731123796600E+00
 148    14 SI   -4.660580506400E+00 -4.284051029100E+00 -2.894090113200E+00

 *******************************************************************************
 LOCAL ATOMIC FUNCTIONS BASIS SET
 *******************************************************************************
   ATOM  X(AU)  Y(AU)  Z(AU)    NO. TYPE  EXPONENT  S COEF   P COEF   D/F/G COEF
 *******************************************************************************
   1 O  -9.095 -2.682-14.603
                                  1 S  
                                         8.020E+03 1.080E-03 0.000E+00 0.000E+00
                                         1.338E+03 8.040E-03 0.000E+00 0.000E+00
                                         2.554E+02 5.324E-02 0.000E+00 0.000E+00
                                         6.922E+01 1.681E-01 0.000E+00 0.000E+00
                                         2.390E+01 3.581E-01 0.000E+00 0.000E+00
                                         9.264E+00 3.855E-01 0.000E+00 0.000E+00
                                         3.851E+00 1.468E-01 0.000E+00 0.000E+00
                                         1.212E+00 7.280E-02 0.000E+00 0.000E+00
                             2-   5 SP 
                                         4.943E+01-8.830E-03 9.580E-03 0.000E+00
                                         1.047E+01-9.150E-02 6.960E-02 0.000E+00
                                         3.235E+00-4.020E-02 2.065E-01 0.000E+00
                                         1.217E+00 3.790E-01 3.470E-01 0.000E+00
                             6-   9 SP 
                                         4.763E-01 1.000E+00 1.000E+00 0.000E+00
                            10-  13 SP 
                                         1.900E-01 1.000E+00 1.000E+00 0.000E+00
   2 O   6.958  5.272-15.191
   3 O  -6.695  4.214-18.929
   4 O   7.015 -9.051-16.567
   5 O  -7.154  1.565-12.964
   6 O  -4.432 -7.536-17.846
   7 O  -8.241 -9.430-15.588
   8 O   9.085 -1.265-18.949
   9 O   3.318  1.879-19.566
  10 O   1.992  4.295-15.506
  11 O  -6.961 -0.856-18.670
  12 O  -3.275  1.179-16.565
  13 O  -1.355 -9.243-14.439
  14 O  10.315  6.941-18.704
  15 O   5.818  6.275-19.987
  16 O   6.214 -3.708-14.642
  17 O  -9.322 -5.419-18.360
  18 O   3.841 -5.921-18.573
  19 O  -2.375 -3.863-15.902
  20 O   0.869  6.587 -2.264
  21 O   4.131  6.460-11.268
  22 O   2.881  8.545 -6.363
  23 O   9.822  3.549 -7.762
  24 O  -8.189  2.582 -4.108
  25 O  -5.251  8.802-11.552
  26 O  -1.668 -3.970 -2.204
  27 O   9.494 -6.533 -6.137
  28 O   3.189 -7.637-10.126
  29 O  -8.775 -7.066-11.293
  30 O  10.298 -1.512 -5.549
  31 O  -2.688 -0.150-12.022
  32 O   0.857 -4.289-12.404
  33 O  -8.073 -2.374 -9.776
  34 O  -4.128 -4.943-11.102
  35 O  -3.086  3.077 -2.727
  36 O  -0.404  7.814-10.248
  37 O  -4.526  4.355 -7.224
  38 O   7.725 -4.631 -1.987
  39 O  -8.552 -8.059 -2.413
  40 O   0.443  3.621 -6.190
  41 O  -6.012  6.824 -2.683
  42 O   7.232  1.758 -3.814
  43 O   8.902 -0.213-11.823
  44 O -10.102  7.318-11.285
  45 O   1.751  1.732 -1.759
  46 O   4.823 -2.743 -9.880
  47 O  -8.986  8.215 -6.517
  48 O  -6.616 -6.476 -6.911
  49 O  -2.071 -9.448 -5.171
  50 O   7.301  7.790 -7.603
  51 O   1.699 -7.792 -2.054
  52 O   3.283 -2.890 -1.808
  53 O   2.358 -5.225 -6.068
  54 O  -0.397 -2.722 -8.496
  55 O  -3.191  4.970-13.572
  56 O   4.626  1.280-13.027
  57 SI  1.141  0.573  1.227
                                729 S  
                                         8.765E+04 2.370E-04 0.000E+00 0.000E+00
                                         1.285E+04 1.920E-03 0.000E+00 0.000E+00
                                         2.786E+03 1.090E-02 0.000E+00 0.000E+00
                                         7.280E+02 4.960E-02 0.000E+00 0.000E+00
                                         2.195E+02 1.668E-01 0.000E+00 0.000E+00
                                         7.590E+01 3.630E-01 0.000E+00 0.000E+00
                                         2.946E+01 4.051E-01 0.000E+00 0.000E+00
                                         1.199E+01 1.504E-01 0.000E+00 0.000E+00
                           730- 733 SP 
                                         1.660E+02-8.840E-03 9.090E-03 0.000E+00
                                         3.937E+01-8.590E-02 6.010E-02 0.000E+00
                                         1.271E+01-7.120E-02 1.952E-01 0.000E+00
                                         4.718E+00 4.147E-01 3.384E-01 0.000E+00
                                         1.848E+00 6.168E-01 3.006E-01 0.000E+00
                                         7.365E-01 1.154E-01 6.480E-02 0.000E+00
                           734- 737 SP 
                                         4.175E+00-1.990E-02-8.700E-03 0.000E+00
                                         1.447E+00-1.864E-01-4.380E-03 0.000E+00
                                         5.023E-01 9.670E-02 2.207E-01 0.000E+00
                           738- 741 SP 
                                         3.220E-01 1.000E+00 1.000E+00 0.000E+00
                           742- 745 SP 
                                         1.300E-01 1.000E+00 1.000E+00 0.000E+00
                           746- 750 D  
                                         6.000E-01 0.000E+00 0.000E+00 1.000E+00
  58 SI  6.945  5.837  0.507
  59 SI  4.419  8.038  3.411
  60 SI  9.431  3.496  3.469
  61 SI  1.578  5.819  6.030
  62 SI  6.798  1.133  6.205
  63 SI  4.037  3.455  8.895
  64 SI  9.405  8.337  8.808
  65 SI  2.660 -7.706  1.384
  66 SI  5.771 -4.442  0.531
  67 SI  4.323 -1.379  3.573
  68 SI  9.316 -6.118  3.180
  69 SI  1.540 -3.623  6.302
  70 SI  6.811 -8.547  6.116
  71 SI  4.076 -6.217  8.854
  72 SI  9.425 -1.511  8.544
  73 SI -9.470  0.298  1.090
  74 SI -4.175  8.394 -0.663
  75 SI -6.347  8.264  3.404
  76 SI -1.232  3.538  3.500
  77 SI -8.983  5.927  6.116
  78 SI -3.629  0.931  6.090
  79 SI -6.324  3.348  8.639
  80 SI -1.018  8.223  8.684
  81 SI -7.972 -7.430  0.635
  82 SI -3.593 -4.479  0.458
  83 SI -5.909 -1.363  3.056
  84 SI -0.932 -6.140  3.590
  85 SI -8.897 -3.748  5.726
  86 SI -3.729 -8.592  6.106
  87 SI -6.377 -6.040  8.727
  88 SI -1.096 -1.273  9.001
  89 SI  1.388  1.142 11.765
  90 SI  6.663  5.994 11.374
  91 SI  1.426 -8.596 11.536
  92 SI  6.709 -3.707 11.349
  93 SI -9.029  0.869 11.159
  94 SI -3.573  5.703 11.206
  95 SI -9.002 -8.448 11.473
  96 SI -3.789 -3.679 11.536
  97 SI  4.049  8.229 14.199
  98 SI  9.296  3.335 13.644
  99 SI  1.336  6.117 17.060
 100 SI  6.735  1.338 16.614
 101 SI  4.384  3.974 19.367
 102 SI 10.382  8.288 18.260
 103 SI  4.125 -1.386 14.205
 104 SI  9.144 -6.122 14.130
 105 SI  1.659 -4.067 16.689
 106 SI  6.600 -8.619 16.943
 107 SI  3.103 -7.120 19.557
 108 SI  9.906 -0.417 19.019
 109 SI -6.114  8.192 13.731
 110 SI -1.295  3.614 14.480
 111 SI -8.436  5.169 15.930
 112 SI -5.002  2.077 16.555
 113 SI -7.194  1.648 20.286
 114 SI -0.373  9.185 19.895
 115 SI -6.529 -1.305 14.106
 116 SI -1.278 -6.173 14.178
 117 SI -9.123 -3.826 16.733
 118 SI -3.547 -8.948 16.790
 119 SI -7.525 -7.781 18.324
 120 SI  1.757  1.363-16.926
 121 SI -4.108  1.976-13.716
 122 SI  4.429  4.379-13.595
 123 SI -7.405 -7.806-18.239
 124 SI  5.124 -6.515-15.798
 125 SI -1.680 -6.968-16.584
 126 SI -8.348  5.583-16.667
 127 SI -9.397 -2.492-17.601
 128 SI -2.407 -1.502-18.126
 129 SI  7.387  7.268-17.520
 130 SI  0.534  9.111 -4.063
 131 SI -9.069 -0.790-12.211
 132 SI 10.054  1.579 -5.267
 133 SI  4.714 -0.109 -4.588
 134 SI  8.239 -3.861 -4.970
 135 SI -6.841 -5.206 -9.726
 136 SI  2.541  8.677 -9.691
 137 SI -5.556  4.252 -4.306
 138 SI -0.110  3.781 -3.170
 139 SI -2.513  7.856-12.553
 140 SI -1.677  3.520 -8.543
 141 SI 10.059  6.604 -8.360
 142 SI  6.150  9.020 -4.966
 143 SI  6.097 -1.463-12.395
 144 SI  2.210 -4.531 -9.346
 145 SI -1.739 -2.973-11.300
 146 SI -8.105  9.429-12.455
 147 SI  1.181 -4.720 -3.271
 148 SI -8.807 -8.096 -5.469
 INFORMATION **** TOLINTEG **** COULOMB AND EXCHANGE SERIES TOLERANCES MODIFIED
 INFORMATION **** READM2 **** FULL DIRECT SCF (MONO AND BIEL INT) SELECTED
 INFORMATION **** SMEAR **** FERMI SMEARING ACTIVE
 FERMI SMEARING - TEMPERATURE SMEARING OF FERMI SURFACE  0.1000E-12
 INFORMATION **** MAXCYCLE **** MAX NUMBER OF SCF CYCLES SET TO         250

 MODIFIED BROYDEN MIXING OF THE FOCK MATRIX
 WO PARAMETER(D.D. Johnson, PRB38, 12807,(1988)             1.0000E-04
 % OF FOCK/KS MATRICES MIXING WHEN BROYDEN METHOD IS ON             90
 NUMBER OF SCF ITERATIONS AFTER WHICH BROYDEN METHOD IS ACTIVE      40
 INFORMATION **** TOLDEE **** SCF TOL ON TOTAL ENERGY SET TO           7
 *******************************************************************************
 N. OF ATOMS PER CELL      148  COULOMB OVERLAP TOL         (T1) 10** -8
 NUMBER OF SHELLS          776  COULOMB PENETRATION TOL     (T2) 10** -8
 NUMBER OF AO             2752  EXCHANGE OVERLAP TOL        (T3) 10** -8
 N. OF ELECTRONS PER CELL 1736  EXCHANGE PSEUDO OVP (F(G))  (T4) 10** -8
 CORE ELECTRONS PER CELL  1032  EXCHANGE PSEUDO OVP (P(G))  (T5) 10**-16
 N. OF SYMMETRY OPERATORS    1  POLE ORDER IN MONO ZONE                4
 *******************************************************************************
 TYPE OF CALCULATION :  UNRESTRICTED OPEN SHELL
 KOHN-SHAM HAMILTONIAN

 (EXCHANGE)[CORRELATION] FUNCTIONAL:(BECKE)[LEE-YANG-PARR]

 NON-LOCAL WEIGHTING FACTOR (EXCHANGE) =           0.9000
 NON-LOCAL WEIGHTING FACTOR [CORRELATION] =        0.8100

 HYBRID EXCHANGE - PERCENTAGE OF FOCK EXCHANGE     5.0000

 SPIN POLARIZED DFT SELECTED

 CAPPA:IS1  2;IS2  2;IS3  2; K PTS MONK NET    8; SYMMOPS: K SPACE  2;G SPACE  1

 *******************************************************************************
 MAX NUMBER OF SCF CYCLES     250  CONVERGENCE ON DELTAP        10**-17
 WEIGHT OF F(I) IN F(I+1)      95% CONVERGENCE ON ENERGY        10**- 7
 SHRINK. FACT.(MONKH.)    2  2  2  NUMBER OF K POINTS IN THE IBZ      8
 SHRINKING FACTOR(GILAT NET)    2  NUMBER OF K POINTS(GILAT NET)      8
 *******************************************************************************
 *** K POINTS COORDINATES (OBLIQUE COORDINATES IN UNITS OF IS =  2)
   1-R(  0  0  0)   2-R(  1  0  0)   3-R(  0  1  0)   4-R(  1  1  0)
   5-R(  0  0  1)   6-R(  1  0  1)   7-R(  0  1  1)   8-R(  1  1  1)

 DIRECT LATTICE VECTORS COMPON. (A.U.)     RECIP. LATTICE VECTORS COMPON. (A.U.) 
        X            Y            Z              X            Y            Z
   20.9723696    0.0000000    0.0000000      0.2995935    0.0000000    0.0000000
    0.0000000   19.2447820    0.0000000      0.0000000    0.3264877    0.0000000
    0.0000000    0.0000000   40.9794671      0.0000000    0.0000000    0.1533252

 DISK SPACE FOR EIGENVECTORS (FTN 10)   60588032 REALS

 SYMMETRY ADAPTION OF THE BLOCH FUNCTIONS DISABLED
 TTTTTTTTTTTTTTTTTTTTTTTTTTTTTT gordsh1     TELAPSE        3.67 TCPU        0.64

 DIMENSIONS  P(G)= 6411836 F(G)= 1143363 P(G),F(G) (IRR) 3215270
 MAX G-VECTOR INDEX FOR 1- AND 2-ELECTRON INTEGRALS  55

 TTTTTTTTTTTTTTTTTTTTTTTTTTTTTT INPUT       TELAPSE        3.98 TCPU        0.95

 NEIGHBORS OF THE NON-EQUIVALENT ATOMS

 N = NUMBER OF NEIGHBORS AT DISTANCE R
    ATOM  N     R/ANG      R/AU   NEIGHBORS (ATOM LABELS AND CELL INDICES)
   1 O    1     1.5977     3.0192 127 SI   0 0 0
   1 O    1     1.6137     3.0495 131 SI   0 0 0
   1 O    1     2.4625     4.6535  17 O    0 0 0
   1 O    1     2.5200     4.7621  43 O   -1 0 0
   1 O    1     2.6157     4.9430  11 O    0 0 0
   1 O    1     2.6161     4.9437  33 O    0 0 0

   2 O    1     1.6392     3.0976 129 SI   0 0 0
   2 O    1     1.6517     3.1212 122 SI   0 0 0
   2 O    1     2.6350     4.9795  21 O    0 0 0
   2 O    1     2.6622     5.0307  15 O    0 0 0
   2 O    1     2.6834     5.0709  10 O    0 0 0
   2 O    1     2.7011     5.1043  56 O    0 0 0

   3 O    1     1.6503     3.1187 126 SI   0 0 0
   3 O    1     1.6692     3.1543 113 SI   0 0-1
   3 O    1     2.5483     4.8155  14 O   -1 0 0
   3 O    1     2.6899     5.0832  11 O    0 0 0
   3 O    1     2.7237     5.1471  12 O    0 0 0
   3 O    1     3.2461     6.1343 112 SI   0 0-1

   4 O    1     1.6398     3.0988 129 SI   0-1 0
   4 O    1     1.7228     3.2556 124 SI   0 0 0
   4 O    1     2.5871     4.8888  18 O    0 0 0
   4 O    1     2.7001     5.1024  14 O    0-1 0
   4 O    1     2.7046     5.1109   2 O    0-1 0
   4 O    1     2.8242     5.3371  15 O    0-1 0

   5 O    1     1.6548     3.1270 131 SI   0 0 0
   5 O    1     1.6742     3.1639 121 SI   0 0 0
   5 O    1     2.5802     4.8758  31 O    0 0 0
   5 O    1     2.6187     4.9487   1 O    0 0 0
   5 O    1     2.7253     5.1501  33 O    0 0 0
   5 O    1     2.7836     5.2602  55 O    0 0 0

   6 O    1     1.5935     3.0113 123 SI   0 0 0
   6 O    1     1.6302     3.0806 125 SI   0 0 0
   6 O    1     2.4539     4.6372  19 O    0 0 0
   6 O    1     2.5486     4.8161   7 O    0 0 0
   6 O    1     2.5918     4.8978  13 O    0 0 0
   6 O    1     2.8330     5.3536  17 O    0 0 0

   7 O    1     1.6718     3.1592 146 SI   0-1 0
   7 O    1     1.7036     3.2194 123 SI   0 0 0
   7 O    1     2.3117     4.3684 126 SI   0-1 0
   7 O    1     2.5486     4.8161   6 O    0 0 0
   7 O    1     2.5821     4.8795  14 O   -1-1 0
   7 O    1     2.6098     4.9317  29 O    0 0 0

   8 O    1     1.6329     3.0857 127 SI   1 0 0
   8 O    1     1.7120     3.2352 108 SI   0 0-1
   8 O    1     2.6021     4.9172  17 O    1 0 0
   8 O    1     2.6199     4.9509  11 O    1 0 0
   8 O    1     2.8345     5.3564   1 O    1 0 0
   8 O    1     3.0289     5.7238  16 O    0 0 0

   9 O    1     1.6462     3.1108 120 SI   0 0 0
   9 O    1     1.6489     3.1161 101 SI   0 0-1
   9 O    1     2.5969     4.9074  10 O    0 0 0
   9 O    1     2.6851     5.0741  15 O    0 0 0
   9 O    1     3.1304     5.9155 100 SI   0 0-1
   9 O    1     3.3814     6.3900  99 SI   0 0-1

  10 O    1     1.6393     3.0978 122 SI   0 0 0
  10 O    1     1.7284     3.2663 120 SI   0 0 0
  10 O    1     2.4919     4.7089  56 O    0 0 0
  10 O    1     2.5969     4.9074   9 O    0 0 0
  10 O    1     2.6834     5.0709   2 O    0 0 0
  10 O    1     2.7611     5.2178  21 O    0 0 0

  11 O    1     1.6530     3.1237 127 SI   0 0 0
  11 O    1     1.7077     3.2272 113 SI   0 0-1
  11 O    1     2.4510     4.6317 128 SI   0 0 0
  11 O    1     2.4914     4.7080  12 O    0 0 0
  11 O    1     2.6157     4.9430   1 O    0 0 0
  11 O    1     2.6199     4.9509   8 O   -1 0 0

  12 O    1     1.6267     3.0740 121 SI   0 0 0
  12 O    1     1.7050     3.2219 128 SI   0 0 0
  12 O    1     2.4914     4.7080  11 O    0 0 0
  12 O    1     2.5239     4.7696  31 O    0 0 0
  12 O    1     2.5563     4.8307  55 O    0 0 0
  12 O    1     2.6714     5.0482 120 SI   0 0 0

  13 O    1     1.6312     3.0825 139 SI   0-1 0
  13 O    1     1.6637     3.1438 125 SI   0 0 0
  13 O    1     2.5520     4.8227  36 O    0-1 0
  13 O    1     2.5918     4.8978   6 O    0 0 0
  13 O    1     2.6431     4.9947  25 O    0-1 0
  13 O    1     2.8712     5.4258  55 O    0-1 0

  14 O    1     1.6805     3.1758 129 SI   0 0 0
  14 O    1     1.7810     3.3657 126 SI   1 0 0
  14 O    1     2.2414     4.2357 102 SI   0 0-1
  14 O    1     2.4997     4.7237  15 O    0 0 0
  14 O    1     2.5483     4.8155   3 O    1 0 0
  14 O    1     2.5821     4.8795   7 O    1 1 0

  15 O    1     1.6338     3.0875 129 SI   0 0 0
  15 O    1     1.6726     3.1608 101 SI   0 0-1
  15 O    1     2.4997     4.7237  14 O    0 0 0
  15 O    1     2.6622     5.0307   2 O    0 0 0
  15 O    1     2.6851     5.0741   9 O    0 0 0
  15 O    1     2.8242     5.3371   4 O    0 1 0

  16 O    1     1.6820     3.1785 143 SI   0 0 0
  16 O    1     1.7066     3.2250 124 SI   0 0 0
  16 O    1     2.6743     5.0538  46 O    0 0 0
  16 O    1     2.6974     5.0974  18 O    0 0 0
  16 O    1     2.7696     5.2339  43 O    0 0 0
  16 O    1     2.8993     5.4788  56 O    0 0 0

  17 O    1     1.6004     3.0244 127 SI   0 0 0
  17 O    1     1.6215     3.0641 123 SI   0 0 0
  17 O    1     2.4625     4.6535   1 O    0 0 0
  17 O    1     2.6021     4.9172   8 O   -1 0 0
  17 O    1     2.6426     4.9938   7 O    0 0 0
  17 O    1     2.7238     5.1473  11 O    0 0 0

  18 O    1     1.6485     3.1151 124 SI   0 0 0
  18 O    1     1.6815     3.1775 107 SI   0 0-1
  18 O    1     2.5871     4.8888   4 O    0 0 0
  18 O    1     2.6974     5.0974  16 O    0 0 0
  18 O    1     3.1540     5.9602 125 SI   0 0 0
  18 O    1     3.3833     6.3935 105 SI   0 0-1

  19 O    1     1.7165     3.2437 128 SI   0 0 0
  19 O    1     1.7221     3.2543 125 SI   0 0 0
  19 O    1     2.4539     4.6372   6 O    0 0 0
  19 O    1     2.5029     4.7297 145 SI   0 0 0
  19 O    1     2.5298     4.7806  32 O    0 0 0
  19 O    1     2.7330     5.1647  12 O    0 0 0

  20 O    1     1.6442     3.1070 138 SI   0 0 0
  20 O    1     1.6497     3.1175 130 SI   0 0 0
  20 O    1     2.6134     4.9385  40 O    0 0 0
  20 O    1     2.6140     4.9398  51 O    0 1 0
  20 O    1     2.6252     4.9608  45 O    0 0 0
  20 O    1     2.6295     4.9690  22 O    0 0 0

  21 O    1     1.6596     3.1362 122 SI   0 0 0
  21 O    1     1.6673     3.1508 136 SI   0 0 0
  21 O    1     2.5623     4.8420  36 O    0 0 0
  21 O    1     2.6350     4.9795   2 O    0 0 0
  21 O    1     2.6587     5.0243  50 O    0 0 0
  21 O    1     2.7611     5.2178  10 O    0 0 0

  22 O    1     1.7649     3.3351 130 SI   0 0 0
  22 O    1     1.7715     3.3476 136 SI   0 0 0
  22 O    1     1.8979     3.5865 142 SI   0 0 0
  22 O    1     2.4617     4.6520  50 O    0 0 0
  22 O    1     2.5724     4.8611  28 O    0 1 0
  22 O    1     2.6295     4.9690  20 O    0 0 0

  23 O    1     1.6519     3.1216 141 SI   0 0 0
  23 O    1     1.6869     3.1877 132 SI   0 0 0
  23 O    1     2.5411     4.8020  24 O    1 0 0
  23 O    1     2.6120     4.9360  50 O    0 0 0
  23 O    1     2.6723     5.0499  42 O    0 0 0
  23 O    1     2.7859     5.2646  44 O    1 0 0

  24 O    1     1.6530     3.1238 137 SI   0 0 0
  24 O    1     1.6566     3.1305 132 SI  -1 0 0
  24 O    1     2.5411     4.8020  23 O   -1 0 0
  24 O    1     2.6333     4.9763  41 O    0 0 0
  24 O    1     2.6469     5.0019  30 O   -1 0 0
  24 O    1     2.7122     5.1252  37 O    0 0 0

  25 O    1     1.6184     3.0584 146 SI   0 0 0
  25 O    1     1.6216     3.0644 139 SI   0 0 0
  25 O    1     2.5382     4.7965  55 O    0 0 0
  25 O    1     2.5864     4.8877  29 O    0 1 0
  25 O    1     2.6431     4.9947  13 O    0 1 0
  25 O    1     2.6884     5.0803  44 O    0 0 0

  26 O    1     1.6582     3.1335 147 SI   0 0 0
  26 O    1     1.7590     3.3241  82 SI   0 0 0
  26 O    1     2.6898     5.0829  52 O    0 0 0
  26 O    1     2.6965     5.0956  51 O    0 0 0
  26 O    1     3.0266     5.7194  53 O    0 0 0
  26 O    1     3.2974     6.2312  84 SI   0 0 0

  27 O    1     1.6751     3.1655 148 SI   1 0 0
  27 O    1     1.6799     3.1745 134 SI   0 0 0
  27 O    1     2.5908     4.8960  38 O    0 0 0
  27 O    1     2.6055     4.9236  48 O    1 0 0
  27 O    1     2.6332     4.9761  39 O    1 0 0
  27 O    1     2.7077     5.1169 142 SI   0-1 0

  28 O    1     1.6050     3.0330 136 SI   0-1 0
  28 O    1     1.7720     3.3486 144 SI   0 0 0
  28 O    1     2.4730     4.6732  32 O    0 0 0
  28 O    1     2.5366     4.7935  53 O    0 0 0
  28 O    1     2.5724     4.8611  22 O    0-1 0
  28 O    1     2.7338     5.1661  46 O    0 0 0

  29 O    1     1.6191     3.0597 146 SI   0-1 0
  29 O    1     1.6440     3.1067 135 SI   0 0 0
  29 O    1     2.5864     4.8877  25 O    0-1 0
  29 O    1     2.6036     4.9200  48 O    0 0 0
  29 O    1     2.6098     4.9317   7 O    0 0 0
  29 O    1     2.6357     4.9808  33 O    0 0 0

  30 O    1     1.6476     3.1136 132 SI   0 0 0
  30 O    1     1.6809     3.1764 134 SI   0 0 0
  30 O    1     2.5437     4.8069  42 O    0 0 0
  30 O    1     2.6469     5.0019  24 O    1 0 0
  30 O    1     2.6660     5.0380  33 O    1 0 0
  30 O    1     2.7087     5.1187  27 O    0 0 0

  31 O    1     1.6217     3.0647 145 SI   0 0 0
  31 O    1     1.6228     3.0666 121 SI   0 0 0
  31 O    1     2.5239     4.7696  12 O    0 0 0
  31 O    1     2.5802     4.8758   5 O    0 0 0
  31 O    1     2.6088     4.9299  54 O    0 0 0
  31 O    1     2.6931     5.0892  34 O    0 0 0

  32 O    1     1.6473     3.1129 145 SI   0 0 0
  32 O    1     1.7744     3.3532 144 SI   0 0 0
  32 O    1     2.3251     4.3937  54 O    0 0 0
  32 O    1     2.4730     4.6732  28 O    0 0 0
  32 O    1     2.5298     4.7806  19 O    0 0 0
  32 O    1     2.6189     4.9490  46 O    0 0 0

  33 O    1     1.6252     3.0712 131 SI   0 0 0
  33 O    1     1.6346     3.0890 135 SI   0 0 0
  33 O    1     2.5879     4.8903  34 O    0 0 0
  33 O    1     2.6161     4.9437   1 O    0 0 0
  33 O    1     2.6357     4.9808  29 O    0 0 0
  33 O    1     2.6371     4.9835  43 O   -1 0 0

  34 O    1     1.6156     3.0530 135 SI   0 0 0
  34 O    1     1.6424     3.1037 145 SI   0 0 0
  34 O    1     2.5879     4.8903  33 O    0 0 0
  34 O    1     2.6801     5.0647  54 O    0 0 0
  34 O    1     2.6931     5.0892  31 O    0 0 0
  34 O    1     2.7034     5.1086  48 O    0 0 0

  35 O    1     1.6354     3.0904 138 SI   0 0 0
  35 O    1     1.6714     3.1585 137 SI   0 0 0
  35 O    1     2.5160     4.7546  41 O    0 0 0
  35 O    1     2.5889     4.8922  37 O    0 0 0
  35 O    1     2.6323     4.9743  40 O    0 0 0
  35 O    1     2.7058     5.1133  45 O    0 0 0

  36 O    1     1.6505     3.1190 136 SI   0 0 0
  36 O    1     1.6534     3.1246 139 SI   0 0 0
  36 O    1     2.5361     4.7926 140 SI   0 0 0
  36 O    1     2.5520     4.8227  13 O    0 1 0
  36 O    1     2.5623     4.8420  21 O    0 0 0
  36 O    1     2.7068     5.1150  25 O    0 0 0

  37 O    1     1.6384     3.0962 137 SI   0 0 0
  37 O    1     1.7192     3.2488 140 SI   0 0 0
  37 O    1     2.5889     4.8922  35 O    0 0 0
  37 O    1     2.7122     5.1252  24 O    0 0 0
  37 O    1     2.7141     5.1289  40 O    0 0 0
  37 O    1     2.8464     5.3790  41 O    0 0 0

  38 O    1     1.6529     3.1234 134 SI   0 0 0
  38 O    1     1.6896     3.1929  66 SI   0 0 0
  38 O    1     2.5264     4.7743  52 O    0 0 0
  38 O    1     2.5908     4.8960  27 O    0 0 0
  38 O    1     2.8512     5.3879  30 O    0 0 0
  38 O    1     2.9671     5.6070  68 SI   0 0 0

  39 O    1     1.6231     3.0673 148 SI   0 0 0
  39 O    1     1.6750     3.1652  81 SI   0 0 0
  39 O    1     2.6332     4.9761  27 O   -1 0 0
  39 O    1     2.6744     5.0540  41 O    0-1 0
  39 O    1     2.6907     5.0847  47 O    0-1 0
  39 O    1     2.7237     5.1470  48 O    0 0 0

  40 O    1     1.6268     3.0741 138 SI   0 0 0
  40 O    1     1.6774     3.1697 140 SI   0 0 0
  40 O    1     2.6134     4.9385  20 O    0 0 0
  40 O    1     2.6323     4.9743  35 O    0 0 0
  40 O    1     2.6413     4.9914  45 O    0 0 0
  40 O    1     2.7141     5.1289  37 O    0 0 0

  41 O    1     1.6277     3.0759 137 SI   0 0 0
  41 O    1     1.6667     3.1496  74 SI   0 0 0
  41 O    1     2.5160     4.7546  35 O    0 0 0
  41 O    1     2.6333     4.9763  24 O    0 0 0
  41 O    1     2.6711     5.0476  47 O    0 0 0
  41 O    1     2.6744     5.0540  39 O    0 1 0

  42 O    1     1.6824     3.1793 132 SI   0 0 0
  42 O    1     1.7087     3.2289 133 SI   0 0 0
  42 O    1     2.5437     4.8069  30 O    0 0 0
  42 O    1     2.6723     5.0499  23 O    0 0 0
  42 O    1     2.9741     5.6202  24 O    1 0 0
  42 O    1     3.0823     5.8248 134 SI   0 0 0

  43 O    1     1.6303     3.0809 131 SI   1 0 0
  43 O    1     1.6533     3.1243 143 SI   0 0 0
  43 O    1     2.4803     4.6872  56 O    0 0 0
  43 O    1     2.5200     4.7621   1 O    1 0 0
  43 O    1     2.6371     4.9835  33 O    1 0 0
  43 O    1     2.7402     5.1783  46 O    0 0 0

  44 O    1     1.6503     3.1187 141 SI  -1 0 0
  44 O    1     1.6580     3.1331 146 SI   0 0 0
  44 O    1     2.6347     4.9788  47 O    0 0 0
  44 O    1     2.6665     5.0390  29 O    0 1 0
  44 O    1     2.6884     5.0803  25 O    0 0 0
  44 O    1     2.7252     5.1499  50 O   -1 0 0

  45 O    1     1.6441     3.1068 138 SI   0 0 0
  45 O    1     1.7253     3.2603  57 SI   0 0 0
  45 O    1     2.3767     4.4913 133 SI   0 0 0
  45 O    1     2.5765     4.8689  52 O    0 0 0
  45 O    1     2.6252     4.9608  20 O    0 0 0
  45 O    1     2.6413     4.9914  40 O    0 0 0

  46 O    1     1.6383     3.0960 143 SI   0 0 0
  46 O    1     1.6991     3.2109 144 SI   0 0 0
  46 O    1     2.6189     4.9490  32 O    0 0 0
  46 O    1     2.6743     5.0538  16 O    0 0 0
  46 O    1     2.7048     5.1113  56 O    0 0 0
  46 O    1     2.7338     5.1661  28 O    0 0 0

  47 O    1     1.6485     3.1153 141 SI  -1 0 0
  47 O    1     1.6514     3.1207 148 SI   0 1 0
  47 O    1     2.5550     4.8283  50 O   -1 0 0
  47 O    1     2.6347     4.9788  44 O    0 0 0
  47 O    1     2.6711     5.0476  41 O    0 0 0
  47 O    1     2.6907     5.0847  39 O    0 1 0

  48 O    1     1.6315     3.0831 148 SI   0 0 0
  48 O    1     1.6383     3.0960 135 SI   0 0 0
  48 O    1     2.6036     4.9200  29 O    0 0 0
  48 O    1     2.6055     4.9236  27 O   -1 0 0
  48 O    1     2.7034     5.1086  34 O    0 0 0
  48 O    1     2.7237     5.1470  39 O    0 0 0

  49 O    1     1.5413     2.9126 130 SI   0-1 0
  49 O    1     2.7328     5.1642  51 O    0 0 0
  49 O    1     2.7354     5.1691  74 SI   0-1 0
  49 O    1     2.7697     5.2339  20 O    0-1 0
  49 O    1     2.7757     5.2454  22 O    0-1 0
  49 O    1     2.9254     5.5282  41 O    0-1 0

  50 O    1     1.6386     3.0965 141 SI   0 0 0
  50 O    1     1.6560     3.1294 142 SI   0 0 0
  50 O    1     2.4617     4.6520  22 O    0 0 0
  50 O    1     2.5550     4.8283  47 O    1 0 0
  50 O    1     2.6120     4.9360  23 O    0 0 0
  50 O    1     2.6587     5.0243  21 O    0 0 0

  51 O    1     1.7451     3.2977 130 SI   0-1 0
  51 O    1     1.7699     3.3447 147 SI   0 0 0
  51 O    1     1.8899     3.5714  65 SI   0 0 0
  51 O    1     2.5453     4.8099  53 O    0 0 0
  51 O    1     2.6140     4.9398  20 O    0-1 0
  51 O    1     2.6965     5.0956  26 O    0 0 0

  52 O    1     1.6658     3.1479 147 SI   0 0 0
  52 O    1     1.9852     3.7515  66 SI   0 0 0
  52 O    1     2.2142     4.1843 133 SI   0 0 0
  52 O    1     2.5264     4.7743  38 O    0 0 0
  52 O    1     2.5765     4.8689  45 O    0 0 0
  52 O    1     2.6168     4.9451  53 O    0 0 0

  53 O    1     1.6277     3.0758 147 SI   0 0 0
  53 O    1     1.7749     3.3541 144 SI   0 0 0
  53 O    1     2.3516     4.4439  54 O    0 0 0
  53 O    1     2.5366     4.7935  28 O    0 0 0
  53 O    1     2.5453     4.8099  51 O    0 0 0
  53 O    1     2.6168     4.9451  52 O    0 0 0

  54 O    1     1.6505     3.1190 145 SI   0 0 0
  54 O    1     1.7385     3.2852 144 SI   0 0 0
  54 O    1     2.3251     4.3937  32 O    0 0 0
  54 O    1     2.3516     4.4439  53 O    0 0 0
[...]
 MODIFIED BROYDEN: MIX%=  90 W0=  1.000000000000E-04 W=  4.707527567164E+01
 TTTTTTTTTTTTTTTTTTTTTTTTTTTTTT FDIK        TELAPSE    21346.15 TCPU    20470.96
 POSSIBLY CONDUCTING STATE - EFERMI(AU) -9.9201373E-02 (RES. CHARGE  0.00E+00;IT.  0)
 TTTTTTTTTTTTTTTTTTTTTTTTTTTTTT PDIG        TELAPSE    21349.17 TCPU    20473.97
 CHARGE NORMALIZATION FACTOR   1.00000000
 TOTAL ATOMIC CHARGES:
   8.5955414   8.5900864   8.5982236   8.6458432   8.6226335   8.6304799
   8.7894849   8.5363894   8.6282181   8.6590111   8.7136150   8.6857198
   8.6725742   8.8154082   8.6827645   8.7010855   8.5255672   8.6490553
   8.7757172   8.5254759   8.6447452   8.8126397   8.6399934   8.6685346
   8.5498363   8.6311974   8.7314577   8.6129018   8.5615406   8.5892788
   8.6684495   8.5813448   8.5580344   8.5482094   8.6185023   8.7082772
   8.6412904   8.6010195   8.6280508   8.6566678   8.6047189   8.6761713
   8.6370978   8.5556606   8.7051703   8.5880492   8.6576231   8.4888797
   8.4573009   8.7100051   8.7947415   8.8427643   8.7192950   8.6132554
   8.6693867   8.7560784  13.5525723  13.8365216  14.0915132  14.1782035
  14.0072319  13.9915095  13.9873757  13.9867128  13.6747871  13.4734384
  14.0538214  13.9839348  14.0156901  14.0402504  13.9855631  13.9936465
  13.8242071  13.5085703  14.0603005  14.0183445  13.9897012  14.0269440
  13.9708856  13.9857381  13.7221803  13.5586734  14.0975621  14.0409218
  14.0799795  14.0108279  13.9558442  14.0009292  14.0006428  14.0045016
  13.9809685  13.9926513  13.9998713  14.0247576  13.9831037  14.0004396
  14.0182795  13.9998651  14.0867155  14.0607896  13.2601977  13.6790214
  14.0215146  14.0399116  13.9354063  14.0047715  13.6735669  13.7428344
  14.0499393  13.9754977  14.0664222  14.0057921  13.3907604  13.9867847
  14.0182162  14.0302363  13.9368154  13.9818255  14.0533815  13.1946461
  12.6742109  12.7751375  13.0523732  12.8550847  12.9653929  13.1666060
  12.8898821  13.3017491  12.7439637  13.1013102  12.8247054  12.7015908
  13.1739572  13.0726951  12.9068119  12.6080763  12.7423067  12.9565123
  12.6397939  13.2400827  12.7457585  13.1218076  12.6516166  12.8102882
  12.9388801  12.8518762  12.6504273  12.7615282
 SUMMED SPIN DENSITY           0.00000000
 TOTAL ATOMIC SPINS  :
  -0.0000422  -0.0002796  -0.0003963  -0.0075697   0.0000487  -0.0017880
   0.0003736  -0.0008225  -0.0007190  -0.0004439   0.0003062   0.0016614
  -0.0048762  -0.0035700  -0.0001902  -0.0220172   0.0002492   0.0020700
   0.0210064  -0.0014288  -0.0010792  -0.0004673  -0.0000893   0.0021610
   0.0004672   0.0025346  -0.0022915  -0.0107308  -0.0000862   0.0266495
   0.0007353  -0.0043089   0.0001594   0.0005313  -0.0013398   0.0003116
   0.0002770   0.0376614   0.0007973   0.0032620  -0.0014631   0.0091010
  -0.0014915  -0.0000807   0.0217097   0.0030176   0.0005905   0.0005718
  -0.0025077   0.0001640  -0.0000019  -0.0012084   0.0034926  -0.0000989
  -0.0000419   0.0000980   0.5366289  -0.0780925  -0.0019455   0.0011038
   0.0283665   0.0299940  -0.0132930   0.0034550   0.0014270  -0.0100499
   0.0155915   0.0261355   0.0053919   0.0015608   0.0016512   0.0012108
   0.0019571  -0.0137155  -0.0389575  -0.0965953  -0.0004269   0.0011325
  -0.0021881  -0.0109503  -0.0082518   0.0067401   0.0019856  -0.0031951
  -0.0029994   0.0101820   0.0036057  -0.0011240   0.0015259   0.0115597
  -0.0283462  -0.0430978   0.0048403  -0.0035263  -0.0003568  -0.0074257
   0.0122361  -0.0005170   0.0593320  -0.0021854  -0.0049232  -0.0324935
   0.0114089   0.0009467  -0.6563278  -0.0327330  -0.0279668   0.0010649
   0.0022813   0.0020138  -0.0087255  -0.0035394  -0.0030182   0.0638296
   0.0035248   0.0254765  -0.0015241  -0.0084748   0.0003902  -0.0025960
  -0.0009257  -0.0005397  -0.0010253  -0.8215805   0.4396466  -0.0012158
  -0.0009997  -0.0280349  -0.0115801  -0.0002329  -0.0002614  -0.0001518
   0.2451662   0.3941994  -0.0002247  -0.0029710   0.0000957  -0.0033777
   0.0075168   0.0011448   0.0001360  -0.0005253  -0.0152353   0.0014835
  -0.0029719   0.0004065  -0.0014780   0.0059701
 TTTTTTTTTTTTTTTTTTTTTTTTTTTTTT MOQGAD      TELAPSE    21349.24 TCPU    20474.04
 WARNING **** GENBUD **** COUL. BIPO BUFFER TOO SMALL - TO AVOID I/O SET BIPOSIZE =     1946175
 TTTTTTTTTTTTTTTTTTTTTTTTTTTTTT SHELLX      TELAPSE    21425.13 TCPU    20547.63
 TTTTTTTTTTTTTTTTTTTTTTTTTTTTTT MONMO3      TELAPSE    21433.67 TCPU    20556.16
 NUMERICALLY INTEGRATED DENSITY    868.0001345696    868.0001312866
 TTTTTTTTTTTTTTTTTTTTTTTTTTTTTT NUMDFT      TELAPSE    21439.59 TCPU    20562.07
 CYC 106 ETOT(AU) -3.084450212572E+04 DETOT -1.41E-06 tst  7.92E-08 PX  1.35E-03
 MODIFIED BROYDEN: MIX%=  90 W0=  1.000000000000E-04 W=  1.468464041654E+02
 TTTTTTTTTTTTTTTTTTTTTTTTTTTTTT FDIK        TELAPSE    21542.98 TCPU    20657.30
 POSSIBLY CONDUCTING STATE - EFERMI(AU) -9.9201373E-02 (RES. CHARGE  0.00E+00;IT.  0)
 TTTTTTTTTTTTTTTTTTTTTTTTTTTTTT PDIG        TELAPSE    21545.96 TCPU    20660.28
 CHARGE NORMALIZATION FACTOR   1.00000000
 TOTAL ATOMIC CHARGES:
   8.5955559   8.5900685   8.5982518   8.6458351   8.6226465   8.6305219
   8.7895030   8.5363454   8.6281925   8.6590498   8.7135733   8.6856875
   8.6725849   8.8153868   8.6828074   8.7010501   8.5255470   8.6490699
   8.7758056   8.5255049   8.6447201   8.8126353   8.6399724   8.6685771
   8.5498346   8.6312049   8.7313907   8.6128660   8.5615217   8.5891825
   8.6684566   8.5813504   8.5580220   8.5482318   8.6184890   8.7082638
   8.6412876   8.6011111   8.6281296   8.6566531   8.6047959   8.6762566
   8.6371024   8.5556375   8.7051300   8.5880069   8.6576370   8.4888543
   8.4572127   8.7099823   8.7947835   8.8427781   8.7192695   8.6132394
   8.6694116   8.7560754  13.5525776  13.8374689  14.0915825  14.1781662
  14.0073293  13.9914068  13.9875367  13.9865140  13.6748480  13.4736290
  14.0539162  13.9838451  14.0156651  14.0402201  13.9854682  13.9936830
  13.8243899  13.5085236  14.0599275  14.0180883  13.9894419  14.0269022
  13.9706768  13.9856725  13.7221997  13.5585168  14.0973645  14.0407856
  14.0798634  14.0105797  13.9557818  14.0009225  14.0007121  14.0044832
  13.9810234  13.9927753  13.9999860  14.0247816  13.9830315  14.0003324
  14.0184893  13.9998700  14.0868117  14.0608859  13.2601604  13.6790266
  14.0215754  14.0400926  13.9353733  14.0047628  13.6736208  13.7428386
  14.0498412  13.9756140  14.0663943  14.0056565  13.3906919  13.9869370
  14.0182530  14.0301793  13.9367614  13.9819479  14.0533749  13.1946244
  12.6741835  12.7751560  13.0523923  12.8551078  12.9658271  13.1665875
  12.8899114  13.3017133  12.7439355  13.1013990  12.8247037  12.7016210
  13.1737036  13.0724722  12.9068061  12.6081733  12.7422299  12.9565336
  12.6397422  13.2400709  12.7457651  13.1218311  12.6516071  12.8103139
  12.9388781  12.8519159  12.6503959  12.7615602
 SUMMED SPIN DENSITY           0.00000000
 TOTAL ATOMIC SPINS  :
  -0.0000421  -0.0002796  -0.0003949  -0.0075694   0.0000497  -0.0017829
   0.0003748  -0.0008242  -0.0007195  -0.0004436   0.0003068   0.0016628
  -0.0048715  -0.0035693  -0.0001890  -0.0220207   0.0002483   0.0020844
   0.0210341  -0.0014373  -0.0010806  -0.0004687  -0.0000900   0.0021635
   0.0004688   0.0025337  -0.0022874  -0.0107328  -0.0000877   0.0266693
   0.0007367  -0.0043100   0.0001588   0.0005325  -0.0013444   0.0003116
   0.0002771   0.0376631   0.0007929   0.0032637  -0.0014667   0.0091082
  -0.0014923  -0.0000822   0.0217207   0.0030182   0.0005922   0.0005724
  -0.0025170   0.0001622   0.0000006  -0.0012050   0.0034965  -0.0000970
  -0.0000419   0.0000970   0.5364855  -0.0781711  -0.0019594   0.0010893
   0.0283316   0.0299732  -0.0133079   0.0034469   0.0014183  -0.0100657
   0.0155576   0.0261103   0.0053928   0.0015469   0.0016444   0.0012078
   0.0019465  -0.0137744  -0.0390728  -0.0967706  -0.0004404   0.0011272
  -0.0021942  -0.0109574  -0.0083183   0.0067146   0.0019721  -0.0032003
  -0.0030013   0.0101798   0.0035985  -0.0011316   0.0015324   0.0115656
  -0.0283497  -0.0431008   0.0048380  -0.0035288  -0.0003574  -0.0074312
   0.0122601  -0.0005191   0.0593944  -0.0021850  -0.0049226  -0.0324991
   0.0114086   0.0009454  -0.6563365  -0.0327337  -0.0279722   0.0010666
   0.0022850   0.0020194  -0.0087287  -0.0035428  -0.0030194   0.0640461
   0.0035242   0.0254858  -0.0015254  -0.0084587   0.0003956  -0.0025952
  -0.0009269  -0.0005377  -0.0010217  -0.8215652   0.4398777  -0.0012178
  -0.0009985  -0.0280336  -0.0115803  -0.0002321  -0.0002602  -0.0001453
   0.2453228   0.3943535  -0.0002241  -0.0029691   0.0000936  -0.0033821
   0.0075223   0.0011465   0.0001377  -0.0005406  -0.0152308   0.0014881
  -0.0029716   0.0004073  -0.0014793   0.0059762
 TTTTTTTTTTTTTTTTTTTTTTTTTTTTTT MOQGAD      TELAPSE    21546.06 TCPU    20660.38
 WARNING **** GENBUD **** COUL. BIPO BUFFER TOO SMALL - TO AVOID I/O SET BIPOSIZE =     1946175
 TTTTTTTTTTTTTTTTTTTTTTTTTTTTTT SHELLX      TELAPSE    21620.38 TCPU    20732.26
 TTTTTTTTTTTTTTTTTTTTTTTTTTTTTT MONMO3      TELAPSE    21634.71 TCPU    20746.56
 NUMERICALLY INTEGRATED DENSITY    868.0001345663    868.0001312832
 TTTTTTTTTTTTTTTTTTTTTTTTTTTTTT NUMDFT      TELAPSE    21640.54 TCPU    20752.38
 CYC 107 ETOT(AU) -3.084450212630E+04 DETOT -5.83E-07 tst  9.73E-09 PX  5.32E-04
 MODIFIED BROYDEN: MIX%=  90 W0=  1.000000000000E-04 W=  2.111170351876E+02
 TTTTTTTTTTTTTTTTTTTTTTTTTTTTTT FDIK        TELAPSE    21746.62 TCPU    20851.17
 POSSIBLY CONDUCTING STATE - EFERMI(AU) -9.9201373E-02 (RES. CHARGE  0.00E+00;IT.  0)
 TTTTTTTTTTTTTTTTTTTTTTTTTTTTTT PDIG        TELAPSE    21749.58 TCPU    20854.13
 CHARGE NORMALIZATION FACTOR   1.00000000
 TOTAL ATOMIC CHARGES:
   8.5955525   8.5900724   8.5982645   8.6458399   8.6226549   8.6305178
   8.7894998   8.5363493   8.6282044   8.6590541   8.7135793   8.6857039
   8.6725841   8.8154054   8.6828212   8.7010578   8.5255444   8.6490705
   8.7757800   8.5254860   8.6447122   8.8126281   8.6399841   8.6685776
   8.5498286   8.6312223   8.7313994   8.6128636   8.5615224   8.5892039
   8.6684606   8.5813521   8.5580196   8.5482342   8.6185108   8.7082540
   8.6412970   8.6010807   8.6280914   8.6566518   8.6047708   8.6762275
   8.6371051   8.5556430   8.7051192   8.5880054   8.6576264   8.4888483
   8.4572080   8.7099953   8.7947675   8.8427854   8.7192661   8.6132414
   8.6694227   8.7560747  13.5526869  13.8369946  14.0915798  14.1781627
  14.0073891  13.9914236  13.9875628  13.9866334  13.6748265  13.4736191
  14.0539541  13.9837785  14.0157395  14.0403360  13.9854803  13.9936708
  13.8242737  13.5084436  14.0600282  14.0181263  13.9895803  14.0269509
  13.9706858  13.9856800  13.7221511  13.5585007  14.0973971  14.0408687
  14.0799106  14.0106742  13.9558392  14.0009329  14.0006018  14.0044666
  13.9810221  13.9927183  13.9999825  14.0247640  13.9830191  14.0002693
  14.0184532  13.9998257  14.0868065  14.0608336  13.2601805  13.6790760
  14.0215112  14.0400295  13.9353724  14.0047360  13.6736557  13.7428633
  14.0498227  13.9755655  14.0664434  14.0056597  13.3907510  13.9870315
  14.0181832  14.0301645  13.9366686  13.9819584  14.0533667  13.1946066
  12.6741627  12.7751623  13.0524366  12.8550976  12.9658448  13.1665801
  12.8899227  13.3017239  12.7439113  13.1014119  12.8247023  12.7016152
  13.1737815  13.0725475  12.9068051  12.6082255  12.7421906  12.9565414
  12.6397101  13.2400732  12.7457612  13.1217925  12.6515832  12.8103290
  12.9388623  12.8519329  12.6503827  12.7615764
 SUMMED SPIN DENSITY           0.00000000
 TOTAL ATOMIC SPINS  :
  -0.0000426  -0.0002797  -0.0003946  -0.0075673   0.0000496  -0.0017844
   0.0003748  -0.0008239  -0.0007190  -0.0004443   0.0003072   0.0016637
  -0.0048726  -0.0035680  -0.0001898  -0.0220189   0.0002478   0.0020870
   0.0210371  -0.0014383  -0.0010811  -0.0004698  -0.0000898   0.0021630
   0.0004686   0.0025363  -0.0022864  -0.0107319  -0.0000878   0.0266628
   0.0007362  -0.0043102   0.0001579   0.0005329  -0.0013445   0.0003109
   0.0002769   0.0376594   0.0007920   0.0032600  -0.0014683   0.0091079
  -0.0014924  -0.0000823   0.0217246   0.0030153   0.0005923   0.0005724
  -0.0025197   0.0001616   0.0000009  -0.0012026   0.0034942  -0.0000969
  -0.0000421   0.0000972   0.5364601  -0.0778058  -0.0019623   0.0010786
   0.0283376   0.0299760  -0.0133147   0.0034396   0.0014144  -0.0100769
   0.0155479   0.0261049   0.0053935   0.0015498   0.0016510   0.0012131
   0.0019425  -0.0137891  -0.0391326  -0.0968454  -0.0004308   0.0011253
  -0.0021886  -0.0109519  -0.0083391   0.0067130   0.0019669  -0.0031981
  -0.0029993   0.0101809   0.0035956  -0.0011390   0.0015345   0.0115641
  -0.0283481  -0.0430987   0.0048381  -0.0035247  -0.0003592  -0.0074366
   0.0122611  -0.0005212   0.0593986  -0.0021842  -0.0049212  -0.0324971
   0.0114110   0.0009456  -0.6563409  -0.0327332  -0.0279735   0.0010660
   0.0022863   0.0020217  -0.0087297  -0.0035435  -0.0030199   0.0640577
   0.0035237   0.0254877  -0.0015266  -0.0084588   0.0003956  -0.0025951
  -0.0009273  -0.0005367  -0.0010200  -0.8215652   0.4399021  -0.0012174
  -0.0009976  -0.0280330  -0.0115816  -0.0002292  -0.0002591  -0.0001474
   0.2452520   0.3942565  -0.0002245  -0.0029673   0.0000934  -0.0033816
   0.0075247   0.0011471   0.0001381  -0.0005489  -0.0152319   0.0014892
  -0.0029721   0.0004084  -0.0014830   0.0059744
 TTTTTTTTTTTTTTTTTTTTTTTTTTTTTT MOQGAD      TELAPSE    21749.68 TCPU    20854.23
 WARNING **** GENBUD **** COUL. BIPO BUFFER TOO SMALL - TO AVOID I/O SET BIPOSIZE =     1946175
 TTTTTTTTTTTTTTTTTTTTTTTTTTTTTT SHELLX      TELAPSE    21823.87 TCPU    20926.48
 TTTTTTTTTTTTTTTTTTTTTTTTTTTTTT MONMO3      TELAPSE    21831.96 TCPU    20934.55
 NUMERICALLY INTEGRATED DENSITY    868.0001345673    868.0001312871
 TTTTTTTTTTTTTTTTTTTTTTTTTTTTTT NUMDFT      TELAPSE    21837.76 TCPU    20940.35
 CYC 108 ETOT(AU) -3.084450212632E+04 DETOT -2.18E-08 tst  4.25E-09 PX  1.43E-04
 MODIFIED BROYDEN: MIX%=  90 W0=  1.000000000000E-04 W=  2.327317281872E+02
 TTTTTTTTTTTTTTTTTTTTTTTTTTTTTT FDIK        TELAPSE    21962.74 TCPU    21058.16
 POSSIBLY CONDUCTING STATE - EFERMI(AU) -9.9201373E-02 (RES. CHARGE  0.00E+00;IT.  0)
 TTTTTTTTTTTTTTTTTTTTTTTTTTTTTT PDIG        TELAPSE    21965.70 TCPU    21061.11
 CHARGE NORMALIZATION FACTOR   1.00000000
 TOTAL ATOMIC CHARGES:
   8.5955484   8.5900794   8.5982488   8.6458446   8.6226537   8.6305029
   8.7894927   8.5363574   8.6282135   8.6590413   8.7135836   8.6857080
   8.6725844   8.8154055   8.6828051   8.7010706   8.5255530   8.6490690
   8.7757636   8.5254925   8.6447197   8.8126282   8.6399868   8.6685712
   8.5498314   8.6312223   8.7314115   8.6128728   8.5615289   8.5892175
   8.6684591   8.5813548   8.5580241   8.5482286   8.6185127   8.7082579
   8.6412992   8.6010592   8.6280816   8.6566493   8.6047623   8.6762294
   8.6371060   8.5556474   8.7051250   8.5880105   8.6576225   8.4888522
   8.4572230   8.7099960   8.7947618   8.8427710   8.7192683   8.6132430
   8.6694159   8.7560773  13.5526028  13.8372228  14.0916124  14.1782203
  14.0073532  13.9914623  13.9875382  13.9866362  13.6748198  13.4735921
  14.0539318  13.9838033  14.0157168  14.0403282  13.9854974  13.9936555
  13.8242729  13.5084567  14.0600186  14.0180705  13.9895908  14.0269068
  13.9706993  13.9856568  13.7221539  13.5585131  14.0973775  14.0408501
  14.0798875  14.0106608  13.9557990  14.0009393  14.0006316  14.0044763
  13.9810266  13.9927202  13.9999649  14.0247588  13.9830148  14.0003046
  14.0184358  13.9998397  14.0868022  14.0608381  13.2601844  13.6790570
  14.0215574  14.0400251  13.9354336  14.0047594  13.6736379  13.7428681
  14.0498335  13.9755782  14.0664325  14.0057066  13.3907556  13.9869800
  14.0182115  14.0302067  13.9367124  13.9819365  14.0533677  13.1946045
  12.6741663  12.7751576  13.0524213  12.8550863  12.9657579  13.1665837
  12.8899203  13.3017404  12.7439104  13.1014044  12.8247004  12.7016093
  13.1737655  13.0725011  12.9068022  12.6082100  12.7422001  12.9565358
  12.6397113  13.2400724  12.7457633  13.1217822  12.6515756  12.8103240
  12.9388590  12.8519270  12.6503804  12.7615763
 SUMMED SPIN DENSITY           0.00000000
 TOTAL ATOMIC SPINS  :
  -0.0000427  -0.0002797  -0.0003943  -0.0075671   0.0000497  -0.0017846
   0.0003748  -0.0008242  -0.0007191  -0.0004446   0.0003075   0.0016640
  -0.0048741  -0.0035676  -0.0001895  -0.0220182   0.0002475   0.0020859
   0.0210336  -0.0014390  -0.0010819  -0.0004706  -0.0000902   0.0021633
   0.0004688   0.0025355  -0.0022857  -0.0107327  -0.0000884   0.0266637
   0.0007362  -0.0043111   0.0001574   0.0005331  -0.0013454   0.0003108
   0.0002770   0.0376645   0.0007926   0.0032605  -0.0014675   0.0091095
  -0.0014928  -0.0000829   0.0217256   0.0030148   0.0005928   0.0005724
  -0.0025191   0.0001611   0.0000013  -0.0012014   0.0034948  -0.0000967
  -0.0000421   0.0000968   0.5363813  -0.0776670  -0.0019668   0.0010707
   0.0283296   0.0299700  -0.0133143   0.0034383   0.0014140  -0.0100768
   0.0155388   0.0261046   0.0053945   0.0015494   0.0016543   0.0012167
   0.0019420  -0.0137866  -0.0391403  -0.0968623  -0.0004268   0.0011277
  -0.0021854  -0.0109503  -0.0083444   0.0067113   0.0019653  -0.0031971
  -0.0029972   0.0101819   0.0035965  -0.0011395   0.0015328   0.0115637
  -0.0283481  -0.0430976   0.0048381  -0.0035237  -0.0003607  -0.0074361
   0.0122588  -0.0005213   0.0593917  -0.0021840  -0.0049213  -0.0324926
   0.0114119   0.0009456  -0.6563416  -0.0327310  -0.0279696   0.0010660
   0.0022860   0.0020209  -0.0087289  -0.0035436  -0.0030202   0.0640309
   0.0035235   0.0254872  -0.0015269  -0.0084595   0.0003956  -0.0025959
  -0.0009275  -0.0005361  -0.0010203  -0.8215665   0.4398874  -0.0012174
  -0.0009974  -0.0280351  -0.0115818  -0.0002288  -0.0002583  -0.0001460
   0.2452700   0.3942668  -0.0002239  -0.0029661   0.0000933  -0.0033812
   0.0075251   0.0011473   0.0001386  -0.0005564  -0.0152306   0.0014906
  -0.0029719   0.0004089  -0.0014830   0.0059757
 TTTTTTTTTTTTTTTTTTTTTTTTTTTTTT MOQGAD      TELAPSE    21965.90 TCPU    21061.31
 WARNING **** GENBUD **** COUL. BIPO BUFFER TOO SMALL - TO AVOID I/O SET BIPOSIZE =     1946175
 TTTTTTTTTTTTTTTTTTTTTTTTTTTTTT SHELLX      TELAPSE    22039.00 TCPU    21134.28
 +++ ENERGIES IN A.U. +++
 ::: EXT EL-POLE                                  -4.3028247347425E+04
 ::: EXT EL-SPHEROPOLE                             3.1220981862779E+02
 ::: BIELET ZONE E-E                               5.2400079268179E+04
 ::: TOTAL E-E                                     9.6840417393809E+03
 ::: TOTAL E-N + N-E                              -6.3878306917922E+04
 ::: TOTAL N-N                                    -5.1005410291968E+03
 ::: KINETIC ENERGY                                3.0738076438733E+04
 ::: PSEUDO TOTAL   ENERGY                        -2.8556729769005E+04
 ::: VIRIAL COEFFICIENT                            1.0367881575004E+00
 TTTTTTTTTTTTTTTTTTTTTTTTTTTTTT MONMO3      TELAPSE    22047.29 TCPU    21142.54
 NUMERICALLY INTEGRATED DENSITY    868.0001345663    868.0001312868
 TTTTTTTTTTTTTTTTTTTTTTTTTTTTTT NUMDFT      TELAPSE    22053.36 TCPU    21148.60
 CYC 109 ETOT(AU) -3.084450212641E+04 DETOT -8.30E-08 tst  8.29E-10 PX  1.43E-04

 == SCF ENDED - CONVERGENCE ON ENERGY      E(AU) -3.0844502126407E+04 CYCLES 109


 ENERGY EXPRESSION=HARTREE+FOCK EXCH*0.05000+(BECKE  EXCH)*0.95000+LYP    CORR

 FINITE TEMPERATURE DFT CALCULATION 
 TEMPERATURE      (T)    1.000000000000E-13 HARTREE 
 ENERGY           (E)   -3.084450212641E+04
 FREE ENERGY      (F)   -3.084450212641E+04
 ELECTRON ENTROPY (S)    0.000000000000E+00
 (E(T)+F(T))/2    (E0)  -3.084450212641E+04


 TOTAL ENERGY(DFT)(AU)(109) -3.0844502126407E+04 DE-8.3E-08 tester 8.3E-10
 TTTTTTTTTTTTTTTTTTTTTTTTTTTTTT EDFT        TELAPSE    22053.65 TCPU    21148.87
 EIGENVECTORS IN FORTRAN UNIT 10
 TTTTTTTTTTTTTTTTTTTTTTTTTTTTTT END         TELAPSE    22100.13 TCPU    21195.16
 EEEEEEEEEE TERMINATION  DATE 13 07 2014 TIME 13:55:10.2
NODE    0 CPU TIME =     21195.165
    TOTAL CPU TIME =   4106265.498
