
         
 *******************************************************************************
 *                                                                             *
 *                                CRYSTAL09                                    *
 *                              public : 2.0                                   *
 *                      December 10th, 2012 - sequential executable            *
 *                                                                             *
 *                                                                             *
 *                                                                             *
 *                              MAIN AUTHORS                                   *
 *                                                                             *
 *    R. DOVESI(1,10), V.R. SAUNDERS(2), C. ROETTI(1,10), R. ORLANDO (1,3),    *
 *  C.M. ZICOVICH-WILSON(1,4), F. PASCALE(5), B. CIVALLERI(1,10), K. DOLL(6),  *
 *       N.M. HARRISON(2,7), I. J. BUSH(2), Ph. D'ARCO(8), M. LLUNELL(9)       *
 *                                                                             *
 * (1) THEORETICAL CHEMISTRY GROUP - UNIVERSITA' DI TORINO - TORINO (ITALY)    *
 *      http://www.crystal.unito.it                                            *
 * (2) COMPUTATIONAL SCIENCE & ENGINEERING DEPARTMENT - CCLRC DARESBURY (UK)   *
 *     http://www.cse.clrc.ac.uk/cmg/CRYSTAL/                                  *
 * (3) UNIVERSITA' DEL PIEMONTE ORIENTALE - ALESSANDRIA (ITALY)                *
 * (4) UNIVERSIDAD AUTONOMA DEL ESTADO DE MORELOS - CUERNAVACA (MEXICO)        *
 * (5) UNIVERSITE' HENRI POINCARE' - NANCY (FRANCE)                            *
 * (6) MPI FUER FESTKOERPERFORSCHUNG - STUTTGART (GERMANY)                     *
 * (7) IMPERIAL COLLEGE - LONDON (UK)                                          *
 * (8) UNIVERSITE' PIERRE ET MARIE CURIE - PARIS (FRANCE)                      *
 * (9) UNIVERSIDAD DE BARCELONA - BARCELONA (SPAIN)                            *
 *(10) NIS - NANOSTRUCTURED INTERFACES AND SURFACES - TORINO (ITALY)           *
 *     http://www.crystal.unito.it                                             *
 *******************************************************************************
 EEEEEEEEEE STARTING  DATE 15 10 2015 TIME 16:43:52.2
 Created with astools                                                            

 CRYSTAL CALCULATION
 (INPUT ACCORDING TO THE INTERNATIONAL TABLES FOR X-RAY CRYSTALLOGRAPHY)
 CRYSTAL FAMILY                       :  TRICLINIC   
 CRYSTAL CLASS  (GROTH - 1921)        :  TRICLINIC PEDIAL                     

 SPACE GROUP (NONCENTROSYMMETRIC)     :  P 1             

 LATTICE PARAMETERS  (ANGSTROMS AND DEGREES) - CONVENTIONAL CELL
        A           B           C        ALPHA        BETA       GAMMA
    10.33710    10.57160    22.26090    90.00000    90.00000    90.00000


 NUMBER OF IRREDUCIBLE ATOMS IN THE CONVENTIONAL CELL:  168

 INPUT COORDINATES

 ATOM AT. N.              COORDINATES
   1   8     4.631000000000E-02  4.727200000000E-02  9.930780000000E-01
   2   8     6.328800000000E-02  5.803410000000E-01  9.714190000000E-01
   3   8     5.135290000000E-01  5.663100000000E-02  9.899520000000E-01
   4   8     5.443840000000E-01  5.867330000000E-01  9.780930000000E-01
   5   8     2.173840000000E-01  4.218620000000E-01  4.420580000000E-01
   6   8     2.032630000000E-01  9.282900000000E-01  4.540960000000E-01
   7   8     6.543300000000E-01  4.775950000000E-01  4.462750000000E-01
   8   8     7.083350000000E-01  9.508260000000E-01  4.651950000000E-01
   9   8     6.583640000000E-01  6.648140000000E-01  6.326640000000E-01
  10   8     7.835040000000E-01  3.220010000000E-01  5.180580000000E-01
  11   8     4.096060000000E-01  7.863580000000E-01  6.394680000000E-01
  12   8     7.821450000000E-01  2.609500000000E-02  5.728790000000E-01
  13   8     8.883540000000E-01  7.995830000000E-01  5.105440000000E-01
  14   8     8.940620000000E-01  8.579930000000E-01  6.410430000000E-01
  15   8     3.276450000000E-01  2.873140000000E-01  5.372280000000E-01
  16   8     2.707720000000E-01  1.163950000000E-01  6.392660000000E-01
  17   8     3.691260000000E-01  9.941280000000E-01  5.555520000000E-01
  18   8     5.600130000000E-01  1.580530000000E-01  6.269400000000E-01
  19   8     3.592730000000E-01  5.131120000000E-01  5.233190000000E-01
  20   8     5.651990000000E-01  1.452940000000E-01  4.947460000000E-01
  21   8     1.189760000000E-01  6.870390000000E-01  6.321720000000E-01
  22   8     5.466090000000E-01  3.854250000000E-01  5.521270000000E-01
  23   8     4.047660000000E-01  5.590710000000E-01  6.305960000000E-01
  24   8     6.146980000000E-01  3.941480000000E-01  6.588170000000E-01
  25   8     4.482840000000E-01  6.709410000000E-01  4.423570000000E-01
  26   8     8.216780000000E-01  2.222710000000E-01  6.362600000000E-01
  27   8     6.250440000000E-01  8.999370000000E-01  6.562170000000E-01
  28   8     8.539300000000E-02  9.462610000000E-01  5.778370000000E-01
  29   8     7.318500000000E-02  5.797610000000E-01  5.033870000000E-01
  30   8     8.848000000000E-02  1.301230000000E-01  4.878730000000E-01
  31   8     5.107500000000E-02  1.912550000000E-01  5.987660000000E-01
  32   8     1.967790000000E-01  3.949950000000E-01  6.218350000000E-01
  33   8     8.768210000000E-01  4.984010000000E-01  6.271580000000E-01
  34   8     2.775170000000E-01  7.549760000000E-01  5.198230000000E-01
  35   8     6.159030000000E-01  6.638010000000E-01  5.245180000000E-01
  36   8     5.947330000000E-01  8.745840000000E-01  7.788730000000E-01
  37   8     9.548810000000E-01  4.746610000000E-01  8.413350000000E-01
  38   8     9.120200000000E-02  3.059060000000E-01  7.329820000000E-01
  39   8     5.797930000000E-01  2.762050000000E-01  7.816340000000E-01
  40   8     5.364210000000E-01  7.616400000000E-01  8.871890000000E-01
  41   8     2.749550000000E-01  5.348390000000E-01  7.419190000000E-01
  42   8     5.391000000000E-03  7.674200000000E-02  8.598840000000E-01
  43   8     9.737880000000E-01  8.579550000000E-01  7.946330000000E-01
  44   8     7.824050000000E-01  7.215020000000E-01  7.343710000000E-01
  45   8     4.559160000000E-01  5.098340000000E-01  8.663590000000E-01
  46   8     2.371370000000E-01  8.470550000000E-01  7.268180000000E-01
  47   8     9.910990000000E-01  8.066800000000E-02  7.091370000000E-01
  48   8     6.093540000000E-01  5.449940000000E-01  7.614650000000E-01
  49   8     7.857160000000E-01  7.992250000000E-01  9.820780000000E-01
  50   8     8.271590000000E-01  2.434830000000E-01  8.516160000000E-01
  51   8     8.274680000000E-01  3.498490000000E-01  7.404650000000E-01
  52   8     9.994010000000E-01  5.684300000000E-01  7.381180000000E-01
  53   8     3.773280000000E-01  3.142750000000E-01  7.050080000000E-01
  54   8     7.789930000000E-01  5.571350000000E-01  1.567700000000E-02
  55   8     2.377230000000E-01  8.408200000000E-02  8.018900000000E-01
  56   8     8.118150000000E-01  6.931620000000E-01  8.485170000000E-01
  57   8     3.620970000000E-01  7.679840000000E-01  9.690780000000E-01
  58   8     4.212050000000E-01  7.169550000000E-01  7.632430000000E-01
  59   8     6.245860000000E-01  2.543620000000E-01  9.155300000000E-01
  60   8     3.774460000000E-01  2.685580000000E-01  9.551140000000E-01
  61   8     8.285210000000E-01  3.289320000000E-01  9.984120000000E-01
  62   8     4.688170000000E-01  5.389800000000E-02  8.625710000000E-01
  63   8     4.130030000000E-01  5.538200000000E-02  7.190050000000E-01
  64   8     2.759810000000E-01  3.392750000000E-01  8.211870000000E-01
  65   8     7.485610000000E-01  9.939070000000E-01  8.746720000000E-01
  66   8     7.207860000000E-01  4.879150000000E-01  9.047330000000E-01
  67   8     7.282200000000E-02  3.550020000000E-01  9.360630000000E-01
  68   8     7.472260000000E-01  9.154500000000E-02  7.672010000000E-01
  69   8     2.711570000000E-01  9.978410000000E-01  9.422150000000E-01
  70   8     1.983000000000E-02  8.555020000000E-01  9.122010000000E-01
  71   8     1.805990000000E-01  6.067200000000E-01  8.510860000000E-01
  72   8     2.964600000000E-01  8.510920000000E-01  8.477690000000E-01
  73  14     1.251160000000E-01  4.415710000000E-01  9.951020000000E-01
  74  14     4.431910000000E-01  1.867600000000E-01  1.628000000000E-02
  75  14     5.542600000000E-02  3.093830000000E-01  7.352100000000E-02
  76  14     3.098730000000E-01  7.243200000000E-02  7.811300000000E-02
  77  14     1.851770000000E-01  1.932590000000E-01  1.374000000000E-01
  78  14     4.274630000000E-01  4.360300000000E-01  1.337830000000E-01
  79  14     1.853900000000E-01  9.712050000000E-01  6.797000000000E-03
  80  14     4.350690000000E-01  6.723250000000E-01  1.805100000000E-02
  81  14     7.039300000000E-02  8.095730000000E-01  5.799000000000E-02
  82  14     2.945320000000E-01  5.317560000000E-01  6.150700000000E-02
  83  14     1.839570000000E-01  6.763270000000E-01  1.232760000000E-01
  84  14     4.324840000000E-01  9.340520000000E-01  1.353670000000E-01
  85  14     6.994740000000E-01  4.201510000000E-01  1.311900000000E-02
  86  14     9.293130000000E-01  1.828780000000E-01  1.124200000000E-02
  87  14     5.699340000000E-01  3.198680000000E-01  7.867900000000E-02
  88  14     8.021580000000E-01  4.974800000000E-02  6.935000000000E-02
  89  14     6.907430000000E-01  1.813920000000E-01  1.333290000000E-01
  90  14     9.347150000000E-01  4.322560000000E-01  1.378520000000E-01
  91  14     6.695930000000E-01  9.158760000000E-01  6.681000000000E-03
  92  14     9.309770000000E-01  6.982860000000E-01  9.959480000000E-01
  93  14     5.574140000000E-01  8.036310000000E-01  7.886400000000E-02
  94  14     8.479250000000E-01  5.998230000000E-01  8.608500000000E-02
  95  14     6.856460000000E-01  6.881390000000E-01  1.416310000000E-01
  96  14     9.438280000000E-01  9.267760000000E-01  1.272010000000E-01
  97  14     6.643800000000E-02  5.118400000000E-02  1.922890000000E-01
  98  14     3.157630000000E-01  3.074340000000E-01  1.991390000000E-01
  99  14     1.910190000000E-01  4.391800000000E-01  2.575940000000E-01
 100  14     4.523590000000E-01  1.804810000000E-01  2.542360000000E-01
 101  14     6.008200000000E-02  3.068970000000E-01  3.143440000000E-01
 102  14     3.333490000000E-01  4.354400000000E-02  3.113660000000E-01
 103  14     6.946300000000E-02  5.607330000000E-01  1.933680000000E-01
 104  14     3.115750000000E-01  7.941280000000E-01  1.914020000000E-01
 105  14     1.936900000000E-01  9.235970000000E-01  2.538180000000E-01
 106  14     4.455310000000E-01  6.847890000000E-01  2.596250000000E-01
 107  14     6.826500000000E-02  8.062220000000E-01  3.183050000000E-01
 108  14     3.235630000000E-01  5.525030000000E-01  3.211030000000E-01
 109  14     5.685660000000E-01  5.590600000000E-02  1.922350000000E-01
 110  14     8.069740000000E-01  3.092200000000E-01  1.980990000000E-01
 111  14     6.851760000000E-01  4.381780000000E-01  2.614920000000E-01
 112  14     9.429110000000E-01  1.809360000000E-01  2.511660000000E-01
 113  14     5.555910000000E-01  3.120250000000E-01  3.211220000000E-01
 114  14     8.234190000000E-01  6.855400000000E-02  3.174790000000E-01
 115  14     5.599500000000E-01  5.557080000000E-01  1.967250000000E-01
 116  14     8.220870000000E-01  8.125550000000E-01  1.969490000000E-01
 117  14     6.971450000000E-01  9.430540000000E-01  2.562570000000E-01
 118  14     9.461000000000E-01  6.828060000000E-01  2.562710000000E-01
 119  14     5.744790000000E-01  8.189590000000E-01  3.186010000000E-01
 120  14     8.230950000000E-01  5.621570000000E-01  3.203290000000E-01
 121  14     2.223770000000E-01  1.961690000000E-01  3.626790000000E-01
 122  14     3.785530000000E-01  3.726610000000E-01  3.824890000000E-01
 123  14     1.958130000000E-01  6.838960000000E-01  3.769750000000E-01
 124  14     4.481360000000E-01  9.334360000000E-01  3.856190000000E-01
 125  14     7.018840000000E-01  2.004610000000E-01  3.769820000000E-01
 126  14     9.352550000000E-01  4.249050000000E-01  3.827060000000E-01
 127  14     7.258560000000E-01  7.165740000000E-01  3.775420000000E-01
 128  14     9.585080000000E-01  9.498910000000E-01  3.763170000000E-01
 129  14     1.218020000000E-01  5.298600000000E-02  4.262550000000E-01
 130  14     4.315380000000E-01  3.816580000000E-01  4.926190000000E-01
 131  14     1.006620000000E-01  5.275610000000E-01  4.285530000000E-01
 132  14     3.143660000000E-01  8.003480000000E-01  4.436270000000E-01
 133  14     6.002740000000E-01  5.515300000000E-02  4.355880000000E-01
 134  14     7.665020000000E-01  3.599920000000E-01  4.447630000000E-01
 135  14     6.001450000000E-01  6.281950000000E-01  4.489200000000E-01
 136  14     8.281410000000E-01  8.541910000000E-01  4.446200000000E-01
 137 272     9.418960000000E-01  4.528800000000E-02  6.262230000000E-01
 138 272     7.333770000000E-01  8.315760000000E-01  5.878150000000E-01
 139 272     4.291500000000E-01  6.831870000000E-01  5.607770000000E-01
 140 272     2.054440000000E-01  8.476900000000E-02  5.544080000000E-01
 141 272     1.762980000000E-01  4.337080000000E-01  5.355870000000E-01
 142 272     4.511150000000E-01  9.926680000000E-01  6.340960000000E-01
 143 272     3.963650000000E-01  3.750770000000E-01  6.203660000000E-01
 144 272     9.957980000000E-01  3.390910000000E-01  6.451870000000E-01
 145 272     6.645400000000E-02  7.628020000000E-01  5.498460000000E-01
 146 272     6.944820000000E-01  4.990340000000E-01  6.000820000000E-01
 147 272     6.833540000000E-01  1.818200000000E-01  5.594510000000E-01
 148 272     6.832570000000E-01  2.352060000000E-01  7.048090000000E-01
 149 272     2.756620000000E-01  6.902890000000E-01  6.881080000000E-01
 150 272     9.065440000000E-01  1.144900000000E-02  9.270400000000E-01
 151 272     4.530170000000E-01  4.292880000000E-01  7.783270000000E-01
 152 272     9.276260000000E-01  6.765620000000E-01  6.676050000000E-01
 153 272     5.274590000000E-01  4.021950000000E-01  9.339840000000E-01
 154 272     1.296930000000E-01  4.686930000000E-01  7.898790000000E-01
 155 272     6.428820000000E-01  1.514550000000E-01  8.460970000000E-01
 156 272     7.816720000000E-01  8.658610000000E-01  8.046690000000E-01
 157 272     3.162670000000E-01  1.907170000000E-01  8.730040000000E-01
 158 272     9.953960000000E-01  6.593280000000E-01  8.857140000000E-01
 159 272     4.545940000000E-01  9.171460000000E-01  9.327190000000E-01
 160 272     8.826940000000E-01  3.617940000000E-01  9.116300000000E-01
 161 272     1.115930000000E-01  9.261470000000E-01  8.410370000000E-01
 162 272     3.965810000000E-01  9.146340000000E-01  7.752220000000E-01
 163 272     9.159510000000E-01  1.912840000000E-01  7.724770000000E-01
 164 272     5.865520000000E-01  7.456150000000E-01  7.117270000000E-01
 165 272     6.920900000000E-01  6.699830000000E-01  9.254530000000E-01
 166 272     2.531260000000E-01  1.774310000000E-01  7.205170000000E-01
 167 272     8.049820000000E-01  5.379420000000E-01  7.741660000000E-01
 168 272     3.676590000000E-01  6.698930000000E-01  8.475340000000E-01

 *******************************************************************************

 << INFORMATION >>: FROM NOW ON, ALL COORDINATES REFER TO THE PRIMITIVE CELL

 *******************************************************************************

 LATTICE PARAMETERS  (ANGSTROMS AND DEGREES) - PRIMITIVE CELL
       A          B          C         ALPHA     BETA     GAMMA        VOLUME
   10.33710   10.57160   22.26090    90.00000  90.00000  90.00000   2432.664170

 COORDINATES OF THE EQUIVALENT ATOMS (FRACTIONAL UNITS)

 N. ATOM EQUIV AT. N.          X                  Y                  Z

   1   1   1    8 O     4.63100000000E-02  4.72720000000E-02 -6.92200000000E-03

   2   2   1    8 O     6.32880000000E-02 -4.19659000000E-01 -2.85810000000E-02

   3   3   1    8 O    -4.86471000000E-01  5.66310000000E-02 -1.00480000000E-02

   4   4   1    8 O    -4.55616000000E-01 -4.13267000000E-01 -2.19070000000E-02

   5   5   1    8 O     2.17384000000E-01  4.21862000000E-01  4.42058000000E-01

   6   6   1    8 O     2.03263000000E-01 -7.17100000000E-02  4.54096000000E-01

   7   7   1    8 O    -3.45670000000E-01  4.77595000000E-01  4.46275000000E-01

   8   8   1    8 O    -2.91665000000E-01 -4.91740000000E-02  4.65195000000E-01

   9   9   1    8 O    -3.41636000000E-01 -3.35186000000E-01 -3.67336000000E-01

  10  10   1    8 O    -2.16496000000E-01  3.22001000000E-01 -4.81942000000E-01

  11  11   1    8 O     4.09606000000E-01 -2.13642000000E-01 -3.60532000000E-01

  12  12   1    8 O    -2.17855000000E-01  2.60950000000E-02 -4.27121000000E-01

  13  13   1    8 O    -1.11646000000E-01 -2.00417000000E-01 -4.89456000000E-01

  14  14   1    8 O    -1.05938000000E-01 -1.42007000000E-01 -3.58957000000E-01

  15  15   1    8 O     3.27645000000E-01  2.87314000000E-01 -4.62772000000E-01

  16  16   1    8 O     2.70772000000E-01  1.16395000000E-01 -3.60734000000E-01

  17  17   1    8 O     3.69126000000E-01 -5.87200000000E-03 -4.44448000000E-01

  18  18   1    8 O    -4.39987000000E-01  1.58053000000E-01 -3.73060000000E-01

  19  19   1    8 O     3.59273000000E-01 -4.86888000000E-01 -4.76681000000E-01

  20  20   1    8 O    -4.34801000000E-01  1.45294000000E-01  4.94746000000E-01

  21  21   1    8 O     1.18976000000E-01 -3.12961000000E-01 -3.67828000000E-01

  22  22   1    8 O    -4.53391000000E-01  3.85425000000E-01 -4.47873000000E-01

  23  23   1    8 O     4.04766000000E-01 -4.40929000000E-01 -3.69404000000E-01

  24  24   1    8 O    -3.85302000000E-01  3.94148000000E-01 -3.41183000000E-01

  25  25   1    8 O     4.48284000000E-01 -3.29059000000E-01  4.42357000000E-01

  26  26   1    8 O    -1.78322000000E-01  2.22271000000E-01 -3.63740000000E-01

  27  27   1    8 O    -3.74956000000E-01 -1.00063000000E-01 -3.43783000000E-01

  28  28   1    8 O     8.53930000000E-02 -5.37390000000E-02 -4.22163000000E-01

  29  29   1    8 O     7.31850000000E-02 -4.20239000000E-01 -4.96613000000E-01

  30  30   1    8 O     8.84800000000E-02  1.30123000000E-01  4.87873000000E-01

  31  31   1    8 O     5.10750000000E-02  1.91255000000E-01 -4.01234000000E-01

  32  32   1    8 O     1.96779000000E-01  3.94995000000E-01 -3.78165000000E-01

  33  33   1    8 O    -1.23179000000E-01  4.98401000000E-01 -3.72842000000E-01

  34  34   1    8 O     2.77517000000E-01 -2.45024000000E-01 -4.80177000000E-01

  35  35   1    8 O    -3.84097000000E-01 -3.36199000000E-01 -4.75482000000E-01

  36  36   1    8 O    -4.05267000000E-01 -1.25416000000E-01 -2.21127000000E-01

  37  37   1    8 O    -4.51190000000E-02  4.74661000000E-01 -1.58665000000E-01

  38  38   1    8 O     9.12020000000E-02  3.05906000000E-01 -2.67018000000E-01

  39  39   1    8 O    -4.20207000000E-01  2.76205000000E-01 -2.18366000000E-01

  40  40   1    8 O    -4.63579000000E-01 -2.38360000000E-01 -1.12811000000E-01

  41  41   1    8 O     2.74955000000E-01 -4.65161000000E-01 -2.58081000000E-01

  42  42   1    8 O     5.39100000000E-03  7.67420000000E-02 -1.40116000000E-01

  43  43   1    8 O    -2.62120000000E-02 -1.42045000000E-01 -2.05367000000E-01

  44  44   1    8 O    -2.17595000000E-01 -2.78498000000E-01 -2.65629000000E-01

  45  45   1    8 O     4.55916000000E-01 -4.90166000000E-01 -1.33641000000E-01

  46  46   1    8 O     2.37137000000E-01 -1.52945000000E-01 -2.73182000000E-01

  47  47   1    8 O    -8.90100000000E-03  8.06680000000E-02 -2.90863000000E-01

  48  48   1    8 O    -3.90646000000E-01 -4.55006000000E-01 -2.38535000000E-01

  49  49   1    8 O    -2.14284000000E-01 -2.00775000000E-01 -1.79220000000E-02

  50  50   1    8 O    -1.72841000000E-01  2.43483000000E-01 -1.48384000000E-01

  51  51   1    8 O    -1.72532000000E-01  3.49849000000E-01 -2.59535000000E-01

  52  52   1    8 O    -5.99000000000E-04 -4.31570000000E-01 -2.61882000000E-01

  53  53   1    8 O     3.77328000000E-01  3.14275000000E-01 -2.94992000000E-01

  54  54   1    8 O    -2.21007000000E-01 -4.42865000000E-01  1.56770000000E-02

  55  55   1    8 O     2.37723000000E-01  8.40820000000E-02 -1.98110000000E-01

  56  56   1    8 O    -1.88185000000E-01 -3.06838000000E-01 -1.51483000000E-01

  57  57   1    8 O     3.62097000000E-01 -2.32016000000E-01 -3.09220000000E-02

  58  58   1    8 O     4.21205000000E-01 -2.83045000000E-01 -2.36757000000E-01

  59  59   1    8 O    -3.75414000000E-01  2.54362000000E-01 -8.44700000000E-02

  60  60   1    8 O     3.77446000000E-01  2.68558000000E-01 -4.48860000000E-02

  61  61   1    8 O    -1.71479000000E-01  3.28932000000E-01 -1.58800000000E-03

  62  62   1    8 O     4.68817000000E-01  5.38980000000E-02 -1.37429000000E-01

  63  63   1    8 O     4.13003000000E-01  5.53820000000E-02 -2.80995000000E-01

  64  64   1    8 O     2.75981000000E-01  3.39275000000E-01 -1.78813000000E-01

  65  65   1    8 O    -2.51439000000E-01 -6.09300000000E-03 -1.25328000000E-01

  66  66   1    8 O    -2.79214000000E-01  4.87915000000E-01 -9.52670000000E-02

  67  67   1    8 O     7.28220000000E-02  3.55002000000E-01 -6.39370000000E-02

  68  68   1    8 O    -2.52774000000E-01  9.15450000000E-02 -2.32799000000E-01

  69  69   1    8 O     2.71157000000E-01 -2.15900000000E-03 -5.77850000000E-02

  70  70   1    8 O     1.98300000000E-02 -1.44498000000E-01 -8.77990000000E-02

  71  71   1    8 O     1.80599000000E-01 -3.93280000000E-01 -1.48914000000E-01

  72  72   1    8 O     2.96460000000E-01 -1.48908000000E-01 -1.52231000000E-01

  73  73   1   14 SI    1.25116000000E-01  4.41571000000E-01 -4.89800000000E-03

  74  74   1   14 SI    4.43191000000E-01  1.86760000000E-01  1.62800000000E-02

  75  75   1   14 SI    5.54260000000E-02  3.09383000000E-01  7.35210000000E-02

  76  76   1   14 SI    3.09873000000E-01  7.24320000000E-02  7.81130000000E-02

  77  77   1   14 SI    1.85177000000E-01  1.93259000000E-01  1.37400000000E-01

  78  78   1   14 SI    4.27463000000E-01  4.36030000000E-01  1.33783000000E-01

  79  79   1   14 SI    1.85390000000E-01 -2.87950000000E-02  6.79700000000E-03

  80  80   1   14 SI    4.35069000000E-01 -3.27675000000E-01  1.80510000000E-02

  81  81   1   14 SI    7.03930000000E-02 -1.90427000000E-01  5.79900000000E-02

  82  82   1   14 SI    2.94532000000E-01 -4.68244000000E-01  6.15070000000E-02

  83  83   1   14 SI    1.83957000000E-01 -3.23673000000E-01  1.23276000000E-01

  84  84   1   14 SI    4.32484000000E-01 -6.59480000000E-02  1.35367000000E-01

  85  85   1   14 SI   -3.00526000000E-01  4.20151000000E-01  1.31190000000E-02

  86  86   1   14 SI   -7.06870000000E-02  1.82878000000E-01  1.12420000000E-02

  87  87   1   14 SI   -4.30066000000E-01  3.19868000000E-01  7.86790000000E-02

  88  88   1   14 SI   -1.97842000000E-01  4.97480000000E-02  6.93500000000E-02

  89  89   1   14 SI   -3.09257000000E-01  1.81392000000E-01  1.33329000000E-01

  90  90   1   14 SI   -6.52850000000E-02  4.32256000000E-01  1.37852000000E-01

  91  91   1   14 SI   -3.30407000000E-01 -8.41240000000E-02  6.68100000000E-03

  92  92   1   14 SI   -6.90230000000E-02 -3.01714000000E-01 -4.05200000000E-03

  93  93   1   14 SI   -4.42586000000E-01 -1.96369000000E-01  7.88640000000E-02

  94  94   1   14 SI   -1.52075000000E-01 -4.00177000000E-01  8.60850000000E-02

  95  95   1   14 SI   -3.14354000000E-01 -3.11861000000E-01  1.41631000000E-01

  96  96   1   14 SI   -5.61720000000E-02 -7.32240000000E-02  1.27201000000E-01

  97  97   1   14 SI    6.64380000000E-02  5.11840000000E-02  1.92289000000E-01

  98  98   1   14 SI    3.15763000000E-01  3.07434000000E-01  1.99139000000E-01

  99  99   1   14 SI    1.91019000000E-01  4.39180000000E-01  2.57594000000E-01

 100 100   1   14 SI    4.52359000000E-01  1.80481000000E-01  2.54236000000E-01

 101 101   1   14 SI    6.00820000000E-02  3.06897000000E-01  3.14344000000E-01

 102 102   1   14 SI    3.33349000000E-01  4.35440000000E-02  3.11366000000E-01

 103 103   1   14 SI    6.94630000000E-02 -4.39267000000E-01  1.93368000000E-01

 104 104   1   14 SI    3.11575000000E-01 -2.05872000000E-01  1.91402000000E-01

 105 105   1   14 SI    1.93690000000E-01 -7.64030000000E-02  2.53818000000E-01

 106 106   1   14 SI    4.45531000000E-01 -3.15211000000E-01  2.59625000000E-01

 107 107   1   14 SI    6.82650000000E-02 -1.93778000000E-01  3.18305000000E-01

 108 108   1   14 SI    3.23563000000E-01 -4.47497000000E-01  3.21103000000E-01

 109 109   1   14 SI   -4.31434000000E-01  5.59060000000E-02  1.92235000000E-01

 110 110   1   14 SI   -1.93026000000E-01  3.09220000000E-01  1.98099000000E-01

 111 111   1   14 SI   -3.14824000000E-01  4.38178000000E-01  2.61492000000E-01

 112 112   1   14 SI   -5.70890000000E-02  1.80936000000E-01  2.51166000000E-01

 113 113   1   14 SI   -4.44409000000E-01  3.12025000000E-01  3.21122000000E-01

 114 114   1   14 SI   -1.76581000000E-01  6.85540000000E-02  3.17479000000E-01

 115 115   1   14 SI   -4.40050000000E-01 -4.44292000000E-01  1.96725000000E-01

 116 116   1   14 SI   -1.77913000000E-01 -1.87445000000E-01  1.96949000000E-01

 117 117   1   14 SI   -3.02855000000E-01 -5.69460000000E-02  2.56257000000E-01

 118 118   1   14 SI   -5.39000000000E-02 -3.17194000000E-01  2.56271000000E-01

 119 119   1   14 SI   -4.25521000000E-01 -1.81041000000E-01  3.18601000000E-01

 120 120   1   14 SI   -1.76905000000E-01 -4.37843000000E-01  3.20329000000E-01

 121 121   1   14 SI    2.22377000000E-01  1.96169000000E-01  3.62679000000E-01

 122 122   1   14 SI    3.78553000000E-01  3.72661000000E-01  3.82489000000E-01

 123 123   1   14 SI    1.95813000000E-01 -3.16104000000E-01  3.76975000000E-01

 124 124   1   14 SI    4.48136000000E-01 -6.65640000000E-02  3.85619000000E-01

 125 125   1   14 SI   -2.98116000000E-01  2.00461000000E-01  3.76982000000E-01

 126 126   1   14 SI   -6.47450000000E-02  4.24905000000E-01  3.82706000000E-01

 127 127   1   14 SI   -2.74144000000E-01 -2.83426000000E-01  3.77542000000E-01

 128 128   1   14 SI   -4.14920000000E-02 -5.01090000000E-02  3.76317000000E-01

 129 129   1   14 SI    1.21802000000E-01  5.29860000000E-02  4.26255000000E-01

 130 130   1   14 SI    4.31538000000E-01  3.81658000000E-01  4.92619000000E-01

 131 131   1   14 SI    1.00662000000E-01 -4.72439000000E-01  4.28553000000E-01

 132 132   1   14 SI    3.14366000000E-01 -1.99652000000E-01  4.43627000000E-01

 133 133   1   14 SI   -3.99726000000E-01  5.51530000000E-02  4.35588000000E-01

 134 134   1   14 SI   -2.33498000000E-01  3.59992000000E-01  4.44763000000E-01

 135 135   1   14 SI   -3.99855000000E-01 -3.71805000000E-01  4.48920000000E-01

 136 136   1   14 SI   -1.71859000000E-01 -1.45809000000E-01  4.44620000000E-01

 137 137   1  272 HF   -5.81040000000E-02  4.52880000000E-02 -3.73777000000E-01

 138 138   1  272 HF   -2.66623000000E-01 -1.68424000000E-01 -4.12185000000E-01

 139 139   1  272 HF    4.29150000000E-01 -3.16813000000E-01 -4.39223000000E-01

 140 140   1  272 HF    2.05444000000E-01  8.47690000000E-02 -4.45592000000E-01

 141 141   1  272 HF    1.76298000000E-01  4.33708000000E-01 -4.64413000000E-01

 142 142   1  272 HF    4.51115000000E-01 -7.33200000000E-03 -3.65904000000E-01

 143 143   1  272 HF    3.96365000000E-01  3.75077000000E-01 -3.79634000000E-01

 144 144   1  272 HF   -4.20200000000E-03  3.39091000000E-01 -3.54813000000E-01

 145 145   1  272 HF    6.64540000000E-02 -2.37198000000E-01 -4.50154000000E-01

 146 146   1  272 HF   -3.05518000000E-01  4.99034000000E-01 -3.99918000000E-01

 147 147   1  272 HF   -3.16646000000E-01  1.81820000000E-01 -4.40549000000E-01

 148 148   1  272 HF   -3.16743000000E-01  2.35206000000E-01 -2.95191000000E-01

 149 149   1  272 HF    2.75662000000E-01 -3.09711000000E-01 -3.11892000000E-01

 150 150   1  272 HF   -9.34560000000E-02  1.14490000000E-02 -7.29600000000E-02

 151 151   1  272 HF    4.53017000000E-01  4.29288000000E-01 -2.21673000000E-01

 152 152   1  272 HF   -7.23740000000E-02 -3.23438000000E-01 -3.32395000000E-01

 153 153   1  272 HF   -4.72541000000E-01  4.02195000000E-01 -6.60160000000E-02

 154 154   1  272 HF    1.29693000000E-01  4.68693000000E-01 -2.10121000000E-01

 155 155   1  272 HF   -3.57118000000E-01  1.51455000000E-01 -1.53903000000E-01

 156 156   1  272 HF   -2.18328000000E-01 -1.34139000000E-01 -1.95331000000E-01

 157 157   1  272 HF    3.16267000000E-01  1.90717000000E-01 -1.26996000000E-01

 158 158   1  272 HF   -4.60400000000E-03 -3.40672000000E-01 -1.14286000000E-01

 159 159   1  272 HF    4.54594000000E-01 -8.28540000000E-02 -6.72810000000E-02

 160 160   1  272 HF   -1.17306000000E-01  3.61794000000E-01 -8.83700000000E-02

 161 161   1  272 HF    1.11593000000E-01 -7.38530000000E-02 -1.58963000000E-01

 162 162   1  272 HF    3.96581000000E-01 -8.53660000000E-02 -2.24778000000E-01

 163 163   1  272 HF   -8.40490000000E-02  1.91284000000E-01 -2.27523000000E-01

 164 164   1  272 HF   -4.13448000000E-01 -2.54385000000E-01 -2.88273000000E-01

 165 165   1  272 HF   -3.07910000000E-01 -3.30017000000E-01 -7.45470000000E-02

 166 166   1  272 HF    2.53126000000E-01  1.77431000000E-01 -2.79483000000E-01

 167 167   1  272 HF   -1.95018000000E-01 -4.62058000000E-01 -2.25834000000E-01

 168 168   1  272 HF    3.67659000000E-01 -3.30107000000E-01 -1.52466000000E-01

 NUMBER OF SYMMETRY OPERATORS         :    1
 *******************************************************************************
 * GEOMETRY EDITING - INPUT COORDINATES ARE GIVEN IN ANGSTROM         
 *******************************************************************************
 INFORMATION **** NEIGHBOR **** neighbors in geometry analysis          15

 GCALCO - MAX INDICES DIRECT LATTICE VECTOR    19    18     9
 NO.OF VECTORS CREATED 6999 STARS 1063 RMAX   301.85613 BOHR

 GEOMETRY FOR WAVE FUNCTION - DIMENSIONALITY OF THE SYSTEM    3
 (NON PERIODIC DIRECTION: LATTICE PARAMETER FORMALLY SET TO 500)
 *******************************************************************************
 LATTICE PARAMETERS (ANGSTROMS AND DEGREES) - BOHR = 0.5291772083 ANGSTROM
 PRIMITIVE CELL - CENTRING CODE 1/0 VOLUME=  2432.664170 - DENSITY  5.939 g/cm^3
         A              B              C           ALPHA      BETA       GAMMA 
    10.33710000    10.57160000    22.26090000    90.000000  90.000000  90.000000
 *******************************************************************************
 ATOMS IN THE ASYMMETRIC UNIT  168 - ATOMS IN THE UNIT CELL:  168
     ATOM              X/A                 Y/B                 Z/C    
 *******************************************************************************
   1 T   8 O     4.631000000000E-02  4.727200000000E-02 -6.922000000000E-03
   2 T   8 O     6.328800000000E-02 -4.196590000000E-01 -2.858100000000E-02
   3 T   8 O    -4.864710000000E-01  5.663100000000E-02 -1.004800000000E-02
   4 T   8 O    -4.556160000000E-01 -4.132670000000E-01 -2.190700000000E-02
   5 T   8 O     2.173840000000E-01  4.218620000000E-01  4.420580000000E-01
   6 T   8 O     2.032630000000E-01 -7.171000000000E-02  4.540960000000E-01
   7 T   8 O    -3.456700000000E-01  4.775950000000E-01  4.462750000000E-01
   8 T   8 O    -2.916650000000E-01 -4.917400000000E-02  4.651950000000E-01
   9 T   8 O    -3.416360000000E-01 -3.351860000000E-01 -3.673360000000E-01
  10 T   8 O    -2.164960000000E-01  3.220010000000E-01 -4.819420000000E-01
  11 T   8 O     4.096060000000E-01 -2.136420000000E-01 -3.605320000000E-01
  12 T   8 O    -2.178550000000E-01  2.609500000000E-02 -4.271210000000E-01
  13 T   8 O    -1.116460000000E-01 -2.004170000000E-01 -4.894560000000E-01
  14 T   8 O    -1.059380000000E-01 -1.420070000000E-01 -3.589570000000E-01
  15 T   8 O     3.276450000000E-01  2.873140000000E-01 -4.627720000000E-01
  16 T   8 O     2.707720000000E-01  1.163950000000E-01 -3.607340000000E-01
  17 T   8 O     3.691260000000E-01 -5.872000000000E-03 -4.444480000000E-01
  18 T   8 O    -4.399870000000E-01  1.580530000000E-01 -3.730600000000E-01
  19 T   8 O     3.592730000000E-01 -4.868880000000E-01 -4.766810000000E-01
  20 T   8 O    -4.348010000000E-01  1.452940000000E-01  4.947460000000E-01
  21 T   8 O     1.189760000000E-01 -3.129610000000E-01 -3.678280000000E-01
  22 T   8 O    -4.533910000000E-01  3.854250000000E-01 -4.478730000000E-01
  23 T   8 O     4.047660000000E-01 -4.409290000000E-01 -3.694040000000E-01
  24 T   8 O    -3.853020000000E-01  3.941480000000E-01 -3.411830000000E-01
  25 T   8 O     4.482840000000E-01 -3.290590000000E-01  4.423570000000E-01
  26 T   8 O    -1.783220000000E-01  2.222710000000E-01 -3.637400000000E-01
  27 T   8 O    -3.749560000000E-01 -1.000630000000E-01 -3.437830000000E-01
  28 T   8 O     8.539300000000E-02 -5.373900000000E-02 -4.221630000000E-01
  29 T   8 O     7.318500000000E-02 -4.202390000000E-01 -4.966130000000E-01
  30 T   8 O     8.848000000000E-02  1.301230000000E-01  4.878730000000E-01
  31 T   8 O     5.107500000000E-02  1.912550000000E-01 -4.012340000000E-01
  32 T   8 O     1.967790000000E-01  3.949950000000E-01 -3.781650000000E-01
  33 T   8 O    -1.231790000000E-01  4.984010000000E-01 -3.728420000000E-01
  34 T   8 O     2.775170000000E-01 -2.450240000000E-01 -4.801770000000E-01
  35 T   8 O    -3.840970000000E-01 -3.361990000000E-01 -4.754820000000E-01
  36 T   8 O    -4.052670000000E-01 -1.254160000000E-01 -2.211270000000E-01
  37 T   8 O    -4.511900000000E-02  4.746610000000E-01 -1.586650000000E-01
  38 T   8 O     9.120200000000E-02  3.059060000000E-01 -2.670180000000E-01
  39 T   8 O    -4.202070000000E-01  2.762050000000E-01 -2.183660000000E-01
  40 T   8 O    -4.635790000000E-01 -2.383600000000E-01 -1.128110000000E-01
  41 T   8 O     2.749550000000E-01 -4.651610000000E-01 -2.580810000000E-01
  42 T   8 O     5.391000000000E-03  7.674200000000E-02 -1.401160000000E-01
  43 T   8 O    -2.621200000000E-02 -1.420450000000E-01 -2.053670000000E-01
  44 T   8 O    -2.175950000000E-01 -2.784980000000E-01 -2.656290000000E-01
  45 T   8 O     4.559160000000E-01 -4.901660000000E-01 -1.336410000000E-01
  46 T   8 O     2.371370000000E-01 -1.529450000000E-01 -2.731820000000E-01
  47 T   8 O    -8.901000000000E-03  8.066800000000E-02 -2.908630000000E-01
  48 T   8 O    -3.906460000000E-01 -4.550060000000E-01 -2.385350000000E-01
  49 T   8 O    -2.142840000000E-01 -2.007750000000E-01 -1.792200000000E-02
  50 T   8 O    -1.728410000000E-01  2.434830000000E-01 -1.483840000000E-01
  51 T   8 O    -1.725320000000E-01  3.498490000000E-01 -2.595350000000E-01
  52 T   8 O    -5.990000000000E-04 -4.315700000000E-01 -2.618820000000E-01
  53 T   8 O     3.773280000000E-01  3.142750000000E-01 -2.949920000000E-01
  54 T   8 O    -2.210070000000E-01 -4.428650000000E-01  1.567700000000E-02
  55 T   8 O     2.377230000000E-01  8.408200000000E-02 -1.981100000000E-01
  56 T   8 O    -1.881850000000E-01 -3.068380000000E-01 -1.514830000000E-01
  57 T   8 O     3.620970000000E-01 -2.320160000000E-01 -3.092200000000E-02
  58 T   8 O     4.212050000000E-01 -2.830450000000E-01 -2.367570000000E-01
  59 T   8 O    -3.754140000000E-01  2.543620000000E-01 -8.447000000000E-02
  60 T   8 O     3.774460000000E-01  2.685580000000E-01 -4.488600000000E-02
  61 T   8 O    -1.714790000000E-01  3.289320000000E-01 -1.588000000000E-03
  62 T   8 O     4.688170000000E-01  5.389800000000E-02 -1.374290000000E-01
  63 T   8 O     4.130030000000E-01  5.538200000000E-02 -2.809950000000E-01
  64 T   8 O     2.759810000000E-01  3.392750000000E-01 -1.788130000000E-01
  65 T   8 O    -2.514390000000E-01 -6.093000000000E-03 -1.253280000000E-01
  66 T   8 O    -2.792140000000E-01  4.879150000000E-01 -9.526700000000E-02
  67 T   8 O     7.282200000000E-02  3.550020000000E-01 -6.393700000000E-02
  68 T   8 O    -2.527740000000E-01  9.154500000000E-02 -2.327990000000E-01
  69 T   8 O     2.711570000000E-01 -2.159000000000E-03 -5.778500000000E-02
  70 T   8 O     1.983000000000E-02 -1.444980000000E-01 -8.779900000000E-02
  71 T   8 O     1.805990000000E-01 -3.932800000000E-01 -1.489140000000E-01
  72 T   8 O     2.964600000000E-01 -1.489080000000E-01 -1.522310000000E-01
  73 T  14 SI    1.251160000000E-01  4.415710000000E-01 -4.898000000000E-03
  74 T  14 SI    4.431910000000E-01  1.867600000000E-01  1.628000000000E-02
  75 T  14 SI    5.542600000000E-02  3.093830000000E-01  7.352100000000E-02
  76 T  14 SI    3.098730000000E-01  7.243200000000E-02  7.811300000000E-02
  77 T  14 SI    1.851770000000E-01  1.932590000000E-01  1.374000000000E-01
  78 T  14 SI    4.274630000000E-01  4.360300000000E-01  1.337830000000E-01
  79 T  14 SI    1.853900000000E-01 -2.879500000000E-02  6.797000000000E-03
  80 T  14 SI    4.350690000000E-01 -3.276750000000E-01  1.805100000000E-02
  81 T  14 SI    7.039300000000E-02 -1.904270000000E-01  5.799000000000E-02
  82 T  14 SI    2.945320000000E-01 -4.682440000000E-01  6.150700000000E-02
  83 T  14 SI    1.839570000000E-01 -3.236730000000E-01  1.232760000000E-01
  84 T  14 SI    4.324840000000E-01 -6.594800000000E-02  1.353670000000E-01
  85 T  14 SI   -3.005260000000E-01  4.201510000000E-01  1.311900000000E-02
  86 T  14 SI   -7.068700000000E-02  1.828780000000E-01  1.124200000000E-02
  87 T  14 SI   -4.300660000000E-01  3.198680000000E-01  7.867900000000E-02
  88 T  14 SI   -1.978420000000E-01  4.974800000000E-02  6.935000000000E-02
  89 T  14 SI   -3.092570000000E-01  1.813920000000E-01  1.333290000000E-01
  90 T  14 SI   -6.528500000000E-02  4.322560000000E-01  1.378520000000E-01
  91 T  14 SI   -3.304070000000E-01 -8.412400000000E-02  6.681000000000E-03
  92 T  14 SI   -6.902300000000E-02 -3.017140000000E-01 -4.052000000000E-03
  93 T  14 SI   -4.425860000000E-01 -1.963690000000E-01  7.886400000000E-02
  94 T  14 SI   -1.520750000000E-01 -4.001770000000E-01  8.608500000000E-02
  95 T  14 SI   -3.143540000000E-01 -3.118610000000E-01  1.416310000000E-01
  96 T  14 SI   -5.617200000000E-02 -7.322400000000E-02  1.272010000000E-01
  97 T  14 SI    6.643800000000E-02  5.118400000000E-02  1.922890000000E-01
  98 T  14 SI    3.157630000000E-01  3.074340000000E-01  1.991390000000E-01
  99 T  14 SI    1.910190000000E-01  4.391800000000E-01  2.575940000000E-01
 100 T  14 SI    4.523590000000E-01  1.804810000000E-01  2.542360000000E-01
 101 T  14 SI    6.008200000000E-02  3.068970000000E-01  3.143440000000E-01
 102 T  14 SI    3.333490000000E-01  4.354400000000E-02  3.113660000000E-01
 103 T  14 SI    6.946300000000E-02 -4.392670000000E-01  1.933680000000E-01
 104 T  14 SI    3.115750000000E-01 -2.058720000000E-01  1.914020000000E-01
 105 T  14 SI    1.936900000000E-01 -7.640300000000E-02  2.538180000000E-01
 106 T  14 SI    4.455310000000E-01 -3.152110000000E-01  2.596250000000E-01
 107 T  14 SI    6.826500000000E-02 -1.937780000000E-01  3.183050000000E-01
 108 T  14 SI    3.235630000000E-01 -4.474970000000E-01  3.211030000000E-01
 109 T  14 SI   -4.314340000000E-01  5.590600000000E-02  1.922350000000E-01
 110 T  14 SI   -1.930260000000E-01  3.092200000000E-01  1.980990000000E-01
 111 T  14 SI   -3.148240000000E-01  4.381780000000E-01  2.614920000000E-01
 112 T  14 SI   -5.708900000000E-02  1.809360000000E-01  2.511660000000E-01
 113 T  14 SI   -4.444090000000E-01  3.120250000000E-01  3.211220000000E-01
 114 T  14 SI   -1.765810000000E-01  6.855400000000E-02  3.174790000000E-01
 115 T  14 SI   -4.400500000000E-01 -4.442920000000E-01  1.967250000000E-01
 116 T  14 SI   -1.779130000000E-01 -1.874450000000E-01  1.969490000000E-01
 117 T  14 SI   -3.028550000000E-01 -5.694600000000E-02  2.562570000000E-01
 118 T  14 SI   -5.390000000000E-02 -3.171940000000E-01  2.562710000000E-01
 119 T  14 SI   -4.255210000000E-01 -1.810410000000E-01  3.186010000000E-01
 120 T  14 SI   -1.769050000000E-01 -4.378430000000E-01  3.203290000000E-01
 121 T  14 SI    2.223770000000E-01  1.961690000000E-01  3.626790000000E-01
 122 T  14 SI    3.785530000000E-01  3.726610000000E-01  3.824890000000E-01
 123 T  14 SI    1.958130000000E-01 -3.161040000000E-01  3.769750000000E-01
 124 T  14 SI    4.481360000000E-01 -6.656400000000E-02  3.856190000000E-01
 125 T  14 SI   -2.981160000000E-01  2.004610000000E-01  3.769820000000E-01
 126 T  14 SI   -6.474500000000E-02  4.249050000000E-01  3.827060000000E-01
 127 T  14 SI   -2.741440000000E-01 -2.834260000000E-01  3.775420000000E-01
 128 T  14 SI   -4.149200000000E-02 -5.010900000000E-02  3.763170000000E-01
 129 T  14 SI    1.218020000000E-01  5.298600000000E-02  4.262550000000E-01
 130 T  14 SI    4.315380000000E-01  3.816580000000E-01  4.926190000000E-01
 131 T  14 SI    1.006620000000E-01 -4.724390000000E-01  4.285530000000E-01
 132 T  14 SI    3.143660000000E-01 -1.996520000000E-01  4.436270000000E-01
 133 T  14 SI   -3.997260000000E-01  5.515300000000E-02  4.355880000000E-01
 134 T  14 SI   -2.334980000000E-01  3.599920000000E-01  4.447630000000E-01
 135 T  14 SI   -3.998550000000E-01 -3.718050000000E-01  4.489200000000E-01
 136 T  14 SI   -1.718590000000E-01 -1.458090000000E-01  4.446200000000E-01
 137 T 272 HF   -5.810400000000E-02  4.528800000000E-02 -3.737770000000E-01
 138 T 272 HF   -2.666230000000E-01 -1.684240000000E-01 -4.121850000000E-01
 139 T 272 HF    4.291500000000E-01 -3.168130000000E-01 -4.392230000000E-01
 140 T 272 HF    2.054440000000E-01  8.476900000000E-02 -4.455920000000E-01
 141 T 272 HF    1.762980000000E-01  4.337080000000E-01 -4.644130000000E-01
 142 T 272 HF    4.511150000000E-01 -7.332000000000E-03 -3.659040000000E-01
 143 T 272 HF    3.963650000000E-01  3.750770000000E-01 -3.796340000000E-01
 144 T 272 HF   -4.202000000000E-03  3.390910000000E-01 -3.548130000000E-01
 145 T 272 HF    6.645400000000E-02 -2.371980000000E-01 -4.501540000000E-01
 146 T 272 HF   -3.055180000000E-01  4.990340000000E-01 -3.999180000000E-01
 147 T 272 HF   -3.166460000000E-01  1.818200000000E-01 -4.405490000000E-01
 148 T 272 HF   -3.167430000000E-01  2.352060000000E-01 -2.951910000000E-01
 149 T 272 HF    2.756620000000E-01 -3.097110000000E-01 -3.118920000000E-01
 150 T 272 HF   -9.345600000000E-02  1.144900000000E-02 -7.296000000000E-02
 151 T 272 HF    4.530170000000E-01  4.292880000000E-01 -2.216730000000E-01
 152 T 272 HF   -7.237400000000E-02 -3.234380000000E-01 -3.323950000000E-01
 153 T 272 HF   -4.725410000000E-01  4.021950000000E-01 -6.601600000000E-02
 154 T 272 HF    1.296930000000E-01  4.686930000000E-01 -2.101210000000E-01
 155 T 272 HF   -3.571180000000E-01  1.514550000000E-01 -1.539030000000E-01
 156 T 272 HF   -2.183280000000E-01 -1.341390000000E-01 -1.953310000000E-01
 157 T 272 HF    3.162670000000E-01  1.907170000000E-01 -1.269960000000E-01
 158 T 272 HF   -4.604000000000E-03 -3.406720000000E-01 -1.142860000000E-01
 159 T 272 HF    4.545940000000E-01 -8.285400000000E-02 -6.728100000000E-02
 160 T 272 HF   -1.173060000000E-01  3.617940000000E-01 -8.837000000000E-02
 161 T 272 HF    1.115930000000E-01 -7.385300000000E-02 -1.589630000000E-01
 162 T 272 HF    3.965810000000E-01 -8.536600000000E-02 -2.247780000000E-01
 163 T 272 HF   -8.404900000000E-02  1.912840000000E-01 -2.275230000000E-01
 164 T 272 HF   -4.134480000000E-01 -2.543850000000E-01 -2.882730000000E-01
 165 T 272 HF   -3.079100000000E-01 -3.300170000000E-01 -7.454700000000E-02
 166 T 272 HF    2.531260000000E-01  1.774310000000E-01 -2.794830000000E-01
 167 T 272 HF   -1.950180000000E-01 -4.620580000000E-01 -2.258340000000E-01
 168 T 272 HF    3.676590000000E-01 -3.301070000000E-01 -1.524660000000E-01

 T = ATOM BELONGING TO THE ASYMMETRIC UNIT

 ****   1 SYMMOPS - TRANSLATORS IN FRACTIONAL UNITS
  V INV                   ROTATION MATRICES                       TRANSLATOR
  1  1  1.00  0.00  0.00  0.00  1.00  0.00  0.00  0.00  1.00    0.00  0.00  0.00

 DIRECT LATTICE VECTORS CARTESIAN COMPONENTS (ANGSTROM)
          X                    Y                    Z
   0.103371000000E+02   0.632964821373E-15   0.000000000000E+00
   0.000000000000E+00   0.105716000000E+02   0.000000000000E+00
   0.136308699656E-14   0.136308699656E-14   0.222609000000E+02


 CARTESIAN COORDINATES - PRIMITIVE CELL
 *******************************************************************************
 *      ATOM          X(ANGSTROM)         Y(ANGSTROM)         Z(ANGSTROM)
 *******************************************************************************
   1     8 O     4.787111010000E-01  4.997406752000E-01 -1.540899498000E-01
   2     8 O     6.542143848000E-01 -4.436467084400E+00 -6.362387829000E-01
   3     8 O    -5.028699374100E+00  5.986802796000E-01 -2.236775232000E-01
   4     8 O    -4.709748153600E+00 -4.368893417200E+00 -4.876695363000E-01
   5     8 O     2.247120146400E+00  4.459756319200E+00  9.840608932200E+00
   6     8 O     2.101149957300E+00 -7.580894360000E-01  1.010858564640E+01
   7     8 O    -3.573225357000E+00  5.048943302000E+00  9.934483147500E+00
   8     8 O    -3.014970271500E+00 -5.198478584000E-01  1.035565937550E+01
   9     8 O    -3.531525495600E+00 -3.543452317600E+00 -8.177229962400E+00
  10     8 O    -2.237940801600E+00  3.404065771600E+00 -1.072846266780E+01
  11     8 O     4.234138182600E+00 -2.258537767200E+00 -8.025766798800E+00
  12     8 O    -2.251988920500E+00  2.758659020000E-01 -9.508097868900E+00
  13     8 O    -1.154095866600E+00 -2.118728357200E+00 -1.089573107040E+01
  14     8 O    -1.095091699800E+00 -1.501241201200E+00 -7.990705881300E+00
  15     8 O     3.386899129500E+00  3.037368682400E+00 -1.030172121480E+01
  16     8 O     2.798997241200E+00  1.230481382000E+00 -8.030263500600E+00
  17     8 O     3.815692374600E+00 -6.207643520000E-02 -9.893812483200E+00
  18     8 O    -4.548189617700E+00  1.670873094800E+00 -8.304651354000E+00
  19     8 O     3.713840928300E+00 -5.147185180800E+00 -1.061134807290E+01
  20     8 O    -4.494581417100E+00  1.535990050400E+00  1.101349123140E+01
  21     8 O     1.229866809600E+00 -3.308498507600E+00 -8.188182325200E+00
  22     8 O    -4.686748106100E+00  4.074558930000E+00 -9.970056065700E+00
  23     8 O     4.184106618600E+00 -4.661325016400E+00 -8.223265503600E+00
  24     8 O    -3.982905304200E+00  4.166774996800E+00 -7.595040644700E+00
  25     8 O     4.633956536400E+00 -3.478680124400E+00  9.847264941300E+00
  26     8 O    -1.843332346200E+00  2.349760103600E+00 -8.097179766000E+00
  27     8 O    -3.875957667600E+00 -1.057826010800E+00 -7.652918984700E+00
  28     8 O     8.827159803000E-01 -5.681072124000E-01 -9.397728326700E+00
  29     8 O     7.565206635000E-01 -4.442598612400E+00 -1.105505233170E+01
  30     8 O     9.146266080000E-01  1.375608306800E+00  1.086049206570E+01
  31     8 O     5.279673825000E-01  2.021871358000E+00 -8.931829950600E+00
  32     8 O     2.034124200900E+00  4.175729142000E+00 -8.418293248500E+00
  33     8 O    -1.273313640900E+00  5.268896011600E+00 -8.299798477800E+00
  34     8 O     2.868720980700E+00 -2.590295718400E+00 -1.068917217930E+01
  35     8 O    -3.970449098700E+00 -3.554161348400E+00 -1.058465725380E+01
  36     8 O    -4.189285505700E+00 -1.325847785600E+00 -4.922486034300E+00
  37     8 O    -4.663996149000E-01  5.017926227600E+00 -3.532025698500E+00
  38     8 O     9.427641942000E-01  3.233915869600E+00 -5.944060996200E+00
  39     8 O    -4.343721779700E+00  2.919928778000E+00 -4.861023689400E+00
  40     8 O    -4.792062480900E+00 -2.519846576000E+00 -2.511274389900E+00
  41     8 O     2.842237330500E+00 -4.917496027600E+00 -5.745115332900E+00
  42     8 O     5.572730610000E-02  8.112857272000E-01 -3.119108264400E+00
  43     8 O    -2.709560652000E-01 -1.501642922000E+00 -4.571654250300E+00
  44     8 O    -2.249301274500E+00 -2.944169456800E+00 -5.913140606100E+00
  45     8 O     4.712849283600E+00 -5.181838885600E+00 -2.974968936900E+00
  46     8 O     2.451308882700E+00 -1.616873362000E+00 -6.081277183800E+00
  47     8 O    -9.201052710000E-02  8.527898288000E-01 -6.474872156700E+00
  48     8 O    -4.038146766600E+00 -4.810141429600E+00 -5.310003781500E+00
  49     8 O    -2.215075136400E+00 -2.122512990000E+00 -3.989598498000E-01
  50     8 O    -1.786674701100E+00  2.574004882800E+00 -3.303161385600E+00
  51     8 O    -1.783480537200E+00  3.698463688400E+00 -5.777482681500E+00
  52     8 O    -6.191922900001E-03 -4.562385412000E+00 -5.829729013800E+00
  53     8 O     3.900477268800E+00  3.322389590000E+00 -6.566787412800E+00
  54     8 O    -2.284571459700E+00 -4.681791634000E+00  3.489841293000E-01
  55     8 O     2.457366423300E+00  8.888812712000E-01 -4.410106899000E+00
  56     8 O    -1.945287163500E+00 -3.243768600800E+00 -3.372147914700E+00
  57     8 O     3.743032898700E+00 -2.452780345600E+00 -6.883515498000E-01
  58     8 O     4.354038205500E+00 -2.992238522000E+00 -5.270423901300E+00
  59     8 O    -3.880692059400E+00  2.689013319200E+00 -1.880378223000E+00
  60     8 O     3.901697046600E+00  2.839087752800E+00 -9.992027574000E-01
  61     8 O    -1.772595570900E+00  3.477337531200E+00 -3.535030920000E-02
  62     8 O     4.846208210700E+00  5.697880968000E-01 -3.059293226100E+00
  63     8 O     4.269253311300E+00  5.854763512000E-01 -6.255201595500E+00
  64     8 O     2.852843195100E+00  3.586679590000E+00 -3.980538311700E+00
  65     8 O    -2.599150086900E+00 -6.441275880000E-02 -2.789914075200E+00
  66     8 O    -2.886263039400E+00  5.158042214000E+00 -2.120729160300E+00
  67     8 O     7.527682962000E-01  3.752939143200E+00 -1.423295163300E+00
  68     8 O    -2.612950115400E+00  9.677771220000E-01 -5.182315259100E+00
  69     8 O     2.802977024700E+00 -2.282408440000E-02 -1.286346106500E+00
  70     8 O     2.049846930000E-01 -1.527575056800E+00 -1.954484759100E+00
  71     8 O     1.866869922900E+00 -4.157598848000E+00 -3.314959662600E+00
  72     8 O     3.064536666000E+00 -1.574195812800E+00 -3.388799067900E+00
  73    14 SI    1.293336603600E+00  4.668111983600E+00 -1.090338882000E-01
  74    14 SI    4.581309686100E+00  1.974352016000E+00  3.624074520000E-01
  75    14 SI    5.729441046000E-01  3.270673322800E+00  1.636643628900E+00
  76    14 SI    3.203188188300E+00  7.657221312000E-01  1.738865681700E+00
  77    14 SI    1.914193166700E+00  2.043056844400E+00  3.058647660000E+00
  78    14 SI    4.418727777300E+00  4.609534748000E+00  2.978129984700E+00
  79    14 SI    1.916394969000E+00 -3.044092220000E-01  1.513073373000E-01
  80    14 SI    4.497351759900E+00 -3.464049030000E+00  4.018315059000E-01
  81    14 SI    7.276594803000E-01 -2.013118073200E+00  1.290909591000E+00
  82    14 SI    3.044606737200E+00 -4.950088270400E+00  1.369201176300E+00
  83    14 SI    1.901581904700E+00 -3.421741486800E+00  2.744234708400E+00
  84    14 SI    4.470630356400E+00 -6.971758768000E-01  3.013391250300E+00
  85    14 SI   -3.106567314600E+00  4.441668311600E+00  2.920407471000E-01
  86    14 SI   -7.306985877000E-01  1.933313064800E+00  2.502570378000E-01
  87    14 SI   -4.445635248600E+00  3.381516548800E+00  1.751465351100E+00
  88    14 SI   -2.045112538200E+00  5.259159568000E-01  1.543793415000E+00
  89    14 SI   -3.196820534700E+00  1.917603667200E+00  2.968023536100E+00
  90    14 SI   -6.748575735000E-01  4.569637529600E+00  3.068709586800E+00
  91    14 SI   -3.415450199700E+00 -8.893252784000E-01  1.487250729000E-01
  92    14 SI   -7.134976533000E-01 -3.189599722400E+00 -9.020116680000E-02
  93    14 SI   -4.575055740600E+00 -2.075934520400E+00  1.755583617600E+00
  94    14 SI   -1.572014482500E+00 -4.230511173200E+00  1.916329576500E+00
  95    14 SI   -3.249508733400E+00 -3.296869747600E+00  3.152833527900E+00
  96    14 SI   -5.806555812000E-01 -7.740948384000E-01  2.831608740900E+00
  97    14 SI    6.867762498000E-01  5.410967744000E-01  4.280526200100E+00
  98    14 SI    3.264073707300E+00  3.250069274400E+00  4.433013365100E+00
  99    14 SI    1.974582504900E+00  4.642835288000E+00  5.734274274600E+00
 100    14 SI    4.676080218900E+00  1.907972939600E+00  5.659522172400E+00
 101    14 SI    6.210736422000E-01  3.244392325200E+00  6.997580349600E+00
 102    14 SI    3.445861947900E+00  4.603297504000E-01  6.931287389400E+00
 103    14 SI    7.180459773000E-01 -4.643755017200E+00  4.304545711200E+00
 104    14 SI    3.220781932500E+00 -2.176396435200E+00  4.260780781800E+00
 105    14 SI    2.002192899000E+00 -8.077019548000E-01  5.650217116200E+00
 106    14 SI    4.605498500100E+00 -3.332284607600E+00  5.779486162500E+00
 107    14 SI    7.056621315000E-01 -2.048543504800E+00  7.085755774500E+00
 108    14 SI    3.344703087300E+00 -4.730759285200E+00  7.148041772700E+00
 109    14 SI   -4.459776401400E+00  5.910158696000E-01  4.279324111500E+00
 110    14 SI   -1.995329064600E+00  3.268950152000E+00  4.409862029100E+00
 111    14 SI   -3.254367170400E+00  4.632242544800E+00  5.821047262800E+00
 112    14 SI   -5.901347019000E-01  1.912783017600E+00  5.591181209400E+00
 113    14 SI   -4.593900273900E+00  3.298603490000E+00  7.148464729800E+00
 114    14 SI   -1.825335455100E+00  7.247254664000E-01  7.067368271100E+00
 115    14 SI   -4.548840855000E+00 -4.696877307200E+00  4.379275552500E+00
 116    14 SI   -1.839104472300E+00 -1.981593562000E+00  4.384261994100E+00
 117    14 SI   -3.130642420500E+00 -6.020103336000E-01  5.704511451300E+00
 118    14 SI   -5.571696900000E-01 -3.353248090400E+00  5.704823103900E+00
 119    14 SI   -4.398653129100E+00 -1.913893035600E+00  7.092345000900E+00
 120    14 SI   -1.828684675500E+00 -4.628701058800E+00  7.130811836100E+00
 121    14 SI    2.298733286700E+00  2.073820200400E+00  8.073560951100E+00
 122    14 SI    3.913140216300E+00  3.939623027600E+00  8.514549380100E+00
 123    14 SI    2.024138562300E+00 -3.341725046400E+00  8.391802777500E+00
 124    14 SI    4.632426645600E+00 -7.036879824000E-01  8.584225997100E+00
 125    14 SI   -3.081654903600E+00  2.119193507600E+00  8.391958603800E+00
 126    14 SI   -6.692755395000E-01  4.491925698000E+00  8.519379995400E+00
 127    14 SI   -2.833853942400E+00 -2.996266301600E+00  8.404424707800E+00
 128    14 SI   -4.289069532000E-01 -5.297323044000E-01  8.377155105300E+00
 129    14 SI    1.259079454200E+00  5.601467976000E-01  9.488819929500E+00
 130    14 SI    4.460851459800E+00  4.034735712800E+00  1.096614229710E+01
 131    14 SI    1.040553160200E+00 -4.994436132400E+00  9.539975477700E+00
 132    14 SI    3.249632778600E+00 -2.110641083200E+00  9.875536284300E+00
 133    14 SI   -4.132007634600E+00  5.830554548000E-01  9.696580909200E+00
 134    14 SI   -2.413692175800E+00  3.805691427200E+00  9.900824666700E+00
 135    14 SI   -4.133341120500E+00 -3.930573738000E+00  9.993363228000E+00
 136    14 SI   -1.776523668900E+00 -1.541434424400E+00  9.897641358000E+00
 137   272 HF   -6.006268584000E-01  4.787666208000E-01 -8.320612419300E+00
 138   272 HF   -2.756108613300E+00 -1.780511158400E+00 -9.175609066500E+00
 139   272 HF    4.436166465000E+00 -3.349220310800E+00 -9.777499280700E+00
 140   272 HF    2.123695172400E+00  8.961439604000E-01 -9.919278952800E+00
 141   272 HF    1.822410055800E+00  4.584987492800E+00 -1.033825135170E+01
 142   272 HF    4.663220866500E+00 -7.751097120000E-02 -8.145352353600E+00
 143   272 HF    4.097264641500E+00  3.965164013200E+00 -8.450994510600E+00
 144   272 HF   -4.343649420000E-02  3.584734415600E+00 -7.898456711700E+00
 145   272 HF    6.869416434000E-01 -2.507562376800E+00 -1.002083317860E+01
 146   272 HF   -3.158170117800E+00  5.275587834400E+00 -8.902534606200E+00
 147   272 HF   -3.273201366600E+00  1.922128312000E+00 -9.807017234100E+00
 148   272 HF   -3.274204065300E+00  2.486503749600E+00 -6.571217331900E+00
 149   272 HF    2.849545660200E+00 -3.274140807600E+00 -6.942996622800E+00
 150   272 HF   -9.660640176000E-01  1.210342484000E-01 -1.624155264000E+00
 151   272 HF    4.682882030700E+00  4.538261020800E+00 -4.934640485700E+00
 152   272 HF   -7.481372754000E-01 -3.419257160800E+00 -7.399411855500E+00
 153   272 HF   -4.884703571100E+00  4.251844662000E+00 -1.469575574400E+00
 154   272 HF    1.340649510300E+00  4.954834918800E+00 -4.677482568900E+00
 155   272 HF   -3.691564477800E+00  1.601121678000E+00 -3.426019292700E+00
 156   272 HF   -2.256878368800E+00 -1.418063852400E+00 -4.348243857900E+00
 157   272 HF    3.269283605700E+00  2.016183837200E+00 -2.827045256400E+00
 158   272 HF   -4.759200840000E-02 -3.601448115200E+00 -2.544109217400E+00
 159   272 HF    4.699183637400E+00 -8.758993464000E-01 -1.497735612900E+00
 160   272 HF   -1.212603852600E+00  3.824741450400E+00 -1.967195733000E+00
 161   272 HF    1.153548000300E+00 -7.807443748000E-01 -3.538659446700E+00
 162   272 HF    4.099497455100E+00 -9.024552056000E-01 -5.003760580200E+00
 163   272 HF   -8.688229179000E-01  2.022177934400E+00 -5.064866750700E+00
 164   272 HF   -4.273853320800E+00 -2.689256466000E+00 -6.417216425700E+00
 165   272 HF   -3.182896461000E+00 -3.488807717200E+00 -1.659483312300E+00
 166   272 HF    2.616588774600E+00  1.875729559600E+00 -6.221543114700E+00
 167   272 HF   -2.015920567800E+00 -4.884692352800E+00 -5.027268090600E+00
 168   272 HF    3.800527848900E+00 -3.489759161200E+00 -3.394030379400E+00

 *******************************************************************************
 *** PSEUDOPOTENTIAL INFORMATION ***
 *******************************************************************************

 ATOMIC NUMBER  72, NUCLEAR CHARGE 12.000, HAY-WADT SMALL CORE  PSEUDOPOTENTIAL
   TYPE       EXPONENT      COEFF.    N      EXPONENT      COEFF.    N
  W0 TMS   685.5502931  -60.0000000  -1   151.8080485 -688.4980664   0
            38.0522099 -199.7748820   0    10.2057544  -77.2365121   0
             3.4376287  -14.6532596   0     0.8997539   -0.6762204   0
  P0 TMS   380.1096725    3.0000000  -2   724.6234505   31.3395532  -1
           281.4764603 1251.6866138   0    89.3590988  700.8900106   0
            22.9765773  266.0445845   0     3.6700035  465.0196155   0
             3.4703000 -369.5404568   0
  P1 TMS   228.3135771    2.0000000  -2    64.0878447   60.2776972  -1
            20.5139289  192.2174983   0     3.1643736  339.6460089   0
             2.9880924 -266.1066543   0
  P2 TMS   143.7102399    3.0000000  -2    63.1859170   54.6576760  -1
            32.0227449  217.5811427   0    10.7674922  125.1363084   0
             3.1003260   37.6203195   0
  P3 TMS    85.0395853    4.0000000  -2    41.8198820   49.6358393  -1
            19.6524967  178.4657222   0     6.0777120   82.0077173   0
             1.4776693    6.3063943   0

 *******************************************************************************
 LOCAL ATOMIC FUNCTIONS BASIS SET
 *******************************************************************************
   ATOM  X(AU)  Y(AU)  Z(AU)    NO. TYPE  EXPONENT  S COEF   P COEF   D/F/G COEF
 *******************************************************************************
   1 O   0.905  0.944 -0.291
                                  1 S  
                                         2.703E+04 2.173E-04 0.000E+00 0.000E+00
                                         4.052E+03 1.684E-03 0.000E+00 0.000E+00
                                         9.223E+02 8.740E-03 0.000E+00 0.000E+00
                                         2.612E+02 3.524E-02 0.000E+00 0.000E+00
                                         8.535E+01 1.115E-01 0.000E+00 0.000E+00
                                         3.104E+01 2.559E-01 0.000E+00 0.000E+00
                                  2 S  
                                         1.226E+01 3.977E-01 0.000E+00 0.000E+00
                                         4.999E+00 2.463E-01 0.000E+00 0.000E+00
                                  3 S  
                                         1.099E+00 1.000E+00 0.000E+00 0.000E+00
                                  4 S  
                                         3.566E-01 1.000E+00 0.000E+00 0.000E+00
                             5-   7 P  
                                         6.327E+01 0.000E+00 6.069E-03 0.000E+00
                                         1.463E+01 0.000E+00 4.191E-02 0.000E+00
                                         4.450E+00 0.000E+00 1.615E-01 0.000E+00
                                         1.528E+00 0.000E+00 3.571E-01 0.000E+00
                             8-  10 P  
                                         5.490E-01 0.000E+00 1.000E+00 0.000E+00
                            11-  13 P  
                                         1.859E-01 0.000E+00 1.000E+00 0.000E+00
                            14-  18 D  
                                         2.535E-01 0.000E+00 0.000E+00 1.000E+00
   2 O   1.236 -8.384 -1.202
   3 O  -9.503  1.131 -0.423
   4 O  -8.900 -8.256 -0.922
   5 O   4.246  8.428 18.596
   6 O   3.971 -1.433 19.102
   7 O  -6.752  9.541 18.773
   8 O  -5.697 -0.982 19.569
   9 O  -6.674 -6.696-15.453
  10 O  -4.229  6.433-20.274
  11 O   8.001 -4.268-15.167
  12 O  -4.256  0.521-17.968
  13 O  -2.181 -4.004-20.590
  14 O  -2.069 -2.837-15.100
  15 O   6.400  5.740-19.467
  16 O   5.289  2.325-15.175
  17 O   7.211 -0.117-18.697
  18 O  -8.595  3.157-15.694
  19 O   7.018 -9.727-20.053
  20 O  -8.494  2.903 20.812
  21 O   2.324 -6.252-15.473
  22 O  -8.857  7.700-18.841
  23 O   7.907 -8.809-15.540
  24 O  -7.527  7.874-14.353
  25 O   8.757 -6.574 18.609
  26 O  -3.483  4.440-15.301
  27 O  -7.324 -1.999-14.462
  28 O   1.668 -1.074-17.759
  29 O   1.430 -8.395-20.891
  30 O   1.728  2.600 20.523
  31 O   0.998  3.821-16.879
  32 O   3.844  7.891-15.908
  33 O  -2.406  9.957-15.684
  34 O   5.421 -4.895-20.200
  35 O  -7.503 -6.716-20.002
  36 O  -7.917 -2.505 -9.302
  37 O  -0.881  9.483 -6.675
  38 O   1.782  6.111-11.233
  39 O  -8.208  5.518 -9.186
  40 O  -9.056 -4.762 -4.746
  41 O   5.371 -9.293-10.857
  42 O   0.105  1.533 -5.894
  43 O  -0.512 -2.838 -8.639
  44 O  -4.251 -5.564-11.174
  45 O   8.906 -9.792 -5.622
  46 O   4.632 -3.055-11.492
  47 O  -0.174  1.612-12.236
  48 O  -7.631 -9.090-10.034
  49 O  -4.186 -4.011 -0.754
  50 O  -3.376  4.864 -6.242
  51 O  -3.370  6.989-10.918
  52 O  -0.012 -8.622-11.017
  53 O   7.371  6.278-12.409
  54 O  -4.317 -8.847  0.659
  55 O   4.644  1.680 -8.334
  56 O  -3.676 -6.130 -6.372
  57 O   7.073 -4.635 -1.301
  58 O   8.228 -5.655 -9.960
  59 O  -7.333  5.081 -3.553
  60 O   7.373  5.365 -1.888
  61 O  -3.350  6.571 -0.067
  62 O   9.158  1.077 -5.781
  63 O   8.068  1.106-11.821
  64 O   5.391  6.778 -7.522
  65 O  -4.912 -0.122 -5.272
  66 O  -5.454  9.747 -4.008
  67 O   1.423  7.092 -2.690
  68 O  -4.938  1.829 -9.793
  69 O   5.297 -0.043 -2.431
  70 O   0.387 -2.887 -3.693
  71 O   3.528 -7.857 -6.264
  72 O   5.791 -2.975 -6.404
  73 SI  2.444  8.821 -0.206
                               1297 S  
                                         8.765E+04 2.370E-04 0.000E+00 0.000E+00
                                         1.285E+04 1.920E-03 0.000E+00 0.000E+00
                                         2.786E+03 1.090E-02 0.000E+00 0.000E+00
                                         7.280E+02 4.960E-02 0.000E+00 0.000E+00
                                         2.195E+02 1.668E-01 0.000E+00 0.000E+00
                                         7.590E+01 3.630E-01 0.000E+00 0.000E+00
                                         2.946E+01 4.051E-01 0.000E+00 0.000E+00
                                         1.199E+01 1.504E-01 0.000E+00 0.000E+00
                          1298-1301 SP 
                                         1.660E+02-8.840E-03 9.090E-03 0.000E+00
                                         3.937E+01-8.590E-02 6.010E-02 0.000E+00
                                         1.271E+01-7.120E-02 1.952E-01 0.000E+00
                                         4.718E+00 4.147E-01 3.384E-01 0.000E+00
                                         1.848E+00 6.168E-01 3.006E-01 0.000E+00
                                         7.365E-01 1.154E-01 6.480E-02 0.000E+00
                          1302-1305 SP 
                                         4.175E+00-1.990E-02-8.700E-03 0.000E+00
                                         1.447E+00-1.864E-01-4.380E-03 0.000E+00
                                         5.023E-01 9.670E-02 2.207E-01 0.000E+00
                          1306-1309 SP 
                                         3.220E-01 1.000E+00 1.000E+00 0.000E+00
                          1310-1313 SP 
                                         1.300E-01 1.000E+00 1.000E+00 0.000E+00
                          1314-1318 D  
                                         6.000E-01 0.000E+00 0.000E+00 1.000E+00
  74 SI  8.657  3.731  0.685
  75 SI  1.083  6.181  3.093
  76 SI  6.053  1.447  3.286
  77 SI  3.617  3.861  5.780
  78 SI  8.350  8.711  5.628
  79 SI  3.621 -0.575  0.286
  80 SI  8.499 -6.546  0.759
  81 SI  1.375 -3.804  2.439
  82 SI  5.753 -9.354  2.587
  83 SI  3.593 -6.466  5.186
  84 SI  8.448 -1.317  5.694
  85 SI -5.871  8.394  0.552
  86 SI -1.381  3.653  0.473
  87 SI -8.401  6.390  3.310
  88 SI -3.865  0.994  2.917
  89 SI -6.041  3.624  5.609
  90 SI -1.275  8.635  5.799
  91 SI -6.454 -1.681  0.281
  92 SI -1.348 -6.027 -0.170
  93 SI -8.646 -3.923  3.318
  94 SI -2.971 -7.995  3.621
  95 SI -6.141 -6.230  5.958
  96 SI -1.097 -1.463  5.351
  97 SI  1.298  1.023  8.089
  98 SI  6.168  6.142  8.377
  99 SI  3.731  8.774 10.836
 100 SI  8.837  3.606 10.695
 101 SI  1.174  6.131 13.224
 102 SI  6.512  0.870 13.098
 103 SI  1.357 -8.775  8.134
 104 SI  6.086 -4.113  8.052
 105 SI  3.784 -1.526 10.677
 106 SI  8.703 -6.297 10.922
 107 SI  1.334 -3.871 13.390
 108 SI  6.321 -8.940 13.508
 109 SI -8.428  1.117  8.087
 110 SI -3.771  6.177  8.333
 111 SI -6.150  8.754 11.000
 112 SI -1.115  3.615 10.566
 113 SI -8.681  6.233 13.509
 114 SI -3.449  1.370 13.355
 115 SI -8.596 -8.876  8.276
 116 SI -3.475 -3.745  8.285
 117 SI -5.916 -1.138 10.780
 118 SI -1.053 -6.337 10.781
 119 SI -8.312 -3.617 13.403
 120 SI -3.456 -8.747 13.475
 121 SI  4.344  3.919 15.257
 122 SI  7.395  7.445 16.090
 123 SI  3.825 -6.315 15.858
 124 SI  8.754 -1.330 16.222
 125 SI -5.823  4.005 15.859
 126 SI -1.265  8.489 16.099
 127 SI -5.355 -5.662 15.882
 128 SI -0.811 -1.001 15.831
 129 SI  2.379  1.059 17.931
 130 SI  8.430  7.625 20.723
 131 SI  1.966 -9.438 18.028
 132 SI  6.141 -3.989 18.662
 133 SI -7.808  1.102 18.324
 134 SI -4.561  7.192 18.710
 135 SI -7.811 -7.428 18.885
 136 SI -3.357 -2.913 18.704
 137 HF -1.135  0.905-15.724
                               2705 S  
                                         2.400E+01 2.211E-01 0.000E+00 0.000E+00
                                         1.600E+01-3.581E+00 0.000E+00 0.000E+00
                                         1.440E+01 4.254E+00 0.000E+00 0.000E+00
                                         1.030E+01-6.959E-01 0.000E+00 0.000E+00
                               2706 S  
                                         3.793E+00 1.000E+00 0.000E+00 0.000E+00
                               2707 S  
                                         1.019E+00 1.000E+00 0.000E+00 0.000E+00
                               2708 S  
                                         4.599E-01 1.000E+00 0.000E+00 0.000E+00
                               2709 S  
                                         1.928E-01 1.000E+00 0.000E+00 0.000E+00
                          2710-2712 P  
                                         2.235E+01 0.000E+00-7.453E-03 0.000E+00
                                         8.740E+00 0.000E+00 1.564E-01 0.000E+00
                                         4.850E+00 0.000E+00-4.487E-01 0.000E+00
                          2713-2715 P  
                                         1.257E+00 0.000E+00 1.000E+00 0.000E+00
                          2716-2718 P  
                                         6.112E-01 0.000E+00 1.000E+00 0.000E+00
                          2719-2721 P  
                                         2.674E-01 0.000E+00 1.000E+00 0.000E+00
                          2722-2726 D  
                                         8.056E+00 0.000E+00 0.000E+00 9.673E-03
                                         4.342E+00 0.000E+00 0.000E+00-5.457E-02
                                         1.184E+00 0.000E+00 0.000E+00 1.969E-01
                                         5.134E-01 0.000E+00 0.000E+00 4.000E-01
                          2727-2731 D  
                                         2.055E-01 0.000E+00 0.000E+00 1.000E+00
 138 HF -5.208 -3.365-17.339
 139 HF  8.383 -6.329-18.477
 140 HF  4.013  1.693-18.745
 141 HF  3.444  8.664-19.536
 142 HF  8.812 -0.146-15.392
 143 HF  7.743  7.493-15.970
 144 HF -0.082  6.774-14.926
 145 HF  1.298 -4.739-18.937
 146 HF -5.968  9.969-16.823
 147 HF -6.185  3.632-18.533
 148 HF -6.187  4.699-12.418
 149 HF  5.385 -6.187-13.120
 150 HF -1.826  0.229 -3.069
 151 HF  8.849  8.576 -9.325
 152 HF -1.414 -6.461-13.983
 153 HF -9.231  8.035 -2.777
 154 HF  2.533  9.363 -8.839
 155 HF -6.976  3.026 -6.474
 156 HF -4.265 -2.680 -8.217
 157 HF  6.178  3.810 -5.342
 158 HF -0.090 -6.806 -4.808
 159 HF  8.880 -1.655 -2.830
 160 HF -2.291  7.228 -3.717
 161 HF  2.180 -1.475 -6.687
 162 HF  7.747 -1.705 -9.456
 163 HF -1.642  3.821 -9.571
 164 HF -8.076 -5.082-12.127
 165 HF -6.015 -6.593 -3.136
 166 HF  4.945  3.545-11.757
 167 HF -3.810 -9.231 -9.500
 168 HF  7.182 -6.595 -6.414
 INFORMATION **** TOLINTEG **** COULOMB AND EXCHANGE SERIES TOLERANCES MODIFIED
 INFORMATION **** READM2 **** FULL DIRECT SCF (MONO AND BIEL INT) SELECTED
 INFORMATION **** SMEAR **** FERMI SMEARING ACTIVE
 FERMI SMEARING - TEMPERATURE SMEARING OF FERMI SURFACE  0.1000E-01
 INFORMATION **** MAXCYCLE **** MAX NUMBER OF SCF CYCLES SET TO         250

 MODIFIED BROYDEN MIXING OF THE FOCK MATRIX
 WO PARAMETER(D.D. Johnson, PRB38, 12807,(1988)             1.0000E-04
 % OF FOCK/KS MATRICES MIXING WHEN BROYDEN METHOD IS ON             90
 NUMBER OF SCF ITERATIONS AFTER WHICH BROYDEN METHOD IS ACTIVE     130
 INFORMATION **** TOLDEE **** SCF TOL ON TOTAL ENERGY SET TO           6
 *******************************************************************************
 N. OF ATOMS PER CELL      168  COULOMB OVERLAP TOL         (T1) 10** -8
 NUMBER OF SHELLS         1312  COULOMB PENETRATION TOL     (T2) 10** -8
 NUMBER OF AO             3568  EXCHANGE OVERLAP TOL        (T3) 10** -8
 N. OF ELECTRONS PER CELL 1856  EXCHANGE PSEUDO OVP (F(G))  (T4) 10** -8
 CORE ELECTRONS PER CELL   784  EXCHANGE PSEUDO OVP (P(G))  (T5) 10**-16
 N. OF SYMMETRY OPERATORS    1  POLE ORDER IN MONO ZONE                4
 *******************************************************************************
 TYPE OF CALCULATION :  UNRESTRICTED OPEN SHELL
 KOHN-SHAM HAMILTONIAN

 (EXCHANGE)[CORRELATION] FUNCTIONAL:(BECKE)[LEE-YANG-PARR]

 NON-LOCAL WEIGHTING FACTOR (EXCHANGE) =           0.9000
 NON-LOCAL WEIGHTING FACTOR [CORRELATION] =        0.8100

 HYBRID EXCHANGE - PERCENTAGE OF FOCK EXCHANGE    20.0000

 SPIN POLARIZED DFT SELECTED
 CORE  PSEUDO POTENTIAL         TOL. ON PSEUDO              (TP) 10**- 6

 CAPPA:IS1  2;IS2  2;IS3  2; K PTS MONK NET    8; SYMMOPS: K SPACE  2;G SPACE  1

 *******************************************************************************
 MAX NUMBER OF SCF CYCLES     250  CONVERGENCE ON DELTAP        10**-16
 WEIGHT OF F(I) IN F(I+1)      96% CONVERGENCE ON ENERGY        10**- 6
 SHRINK. FACT.(MONKH.)    2  2  2  NUMBER OF K POINTS IN THE IBZ      8
 SHRINKING FACTOR(GILAT NET)    2  NUMBER OF K POINTS(GILAT NET)      8
 *******************************************************************************
 *** K POINTS COORDINATES (OBLIQUE COORDINATES IN UNITS OF IS =  2)
   1-R(  0  0  0)   2-R(  1  0  0)   3-R(  0  1  0)   4-R(  1  1  0)
   5-R(  0  0  1)   6-R(  1  0  1)   7-R(  0  1  1)   8-R(  1  1  1)

 DIRECT LATTICE VECTORS COMPON. (A.U.)     RECIP. LATTICE VECTORS COMPON. (A.U.) 
        X            Y            Z              X            Y            Z
   19.5342880    0.0000000    0.0000000      0.3216491    0.0000000    0.0000000
    0.0000000   19.9774288    0.0000000      0.0000000    0.3145142    0.0000000
    0.0000000    0.0000000   42.0670045      0.0000000    0.0000000    0.1493614

 DISK SPACE FOR EIGENVECTORS (FTN 10)  101844992 REALS

 SYMMETRY ADAPTION OF THE BLOCH FUNCTIONS DISABLED

 DIMENSIONS  P(G)= 9886454 F(G)= 1749267 P(G),F(G) (IRR) 4952307
 MAX G-VECTOR INDEX FOR 1- AND 2-ELECTRON INTEGRALS  45

 TTTTTTTTTTTTTTTTTTTTTTTTTTTTTT INPUT       TELAPSE       16.32 TCPU       16.31

 NEIGHBORS OF THE NON-EQUIVALENT ATOMS

 N = NUMBER OF NEIGHBORS AT DISTANCE R
    ATOM  N     R/ANG      R/AU   NEIGHBORS (ATOM LABELS AND CELL INDICES)
   1 O    1     1.6754     3.1660  79 SI   0 0 0
   1 O    1     1.9187     3.6258  86 SI   0 0 0
   1 O    1     2.0957     3.9603 150 HF   0 0 0
   1 O    1     2.6377     4.9845  69 O    0 0 0
   1 O    1     2.7251     5.1498  70 O    0 0 0
   1 O    1     2.9094     5.4979  81 SI   0 0 0
   1 O    1     3.0112     5.6903  42 O    0 0 0
   1 O    1     3.0419     5.7484  88 SI   0 0 0
   1 O    1     3.3006     6.2371  75 SI   0 0 0
   1 O    1     3.3282     6.2894  76 SI   0 0 0
   1 O    1     3.4146     6.4526  96 SI   0 0 0
   1 O    1     3.5028     6.6192  67 O    0 0 0
   1 O    1     3.6811     6.9562 161 HF   0 0 0
   1 O    1     3.7348     7.0577  61 O    0 0 0
   1 O    1     3.7673     7.1192  49 O    0 0 0

   2 O    1     1.6848     3.1838  73 SI   0-1 0
   2 O    1     1.9296     3.6465  92 SI   0 0 0
   2 O    1     2.1977     4.1530 158 HF   0 0 0
   2 O    1     2.5108     4.7447  67 O    0-1 0
   2 O    1     2.9536     5.5815  71 O    0 0 0
   2 O    1     3.0971     5.8526  81 SI   0 0 0
   2 O    1     3.1092     5.8756  54 O    0 0 0
   2 O    1     3.1622     5.9757  82 SI   0 0 0
   2 O    1     3.2251     6.0945  70 O    0 0 0
   2 O    1     3.2549     6.1509 160 HF   0-1 0
   2 O    1     3.2999     6.2360  37 O    0-1 0
   2 O    1     3.3932     6.4123  94 SI   0 0 0
   2 O    1     3.6489     6.8954  61 O    0-1 0
   2 O    1     3.6576     6.9118  75 SI   0-1 0
   2 O    1     3.6713     6.9378  57 O    0 0 0

   3 O    1     1.6627     3.1421  74 SI  -1 0 0
   3 O    1     2.0418     3.8584 159 HF  -1 0 0
   3 O    1     2.2261     4.2067  91 SI   0 0 0
   3 O    1     2.7568     5.2095  60 O   -1 0 0
   3 O    1     2.7915     5.2752  69 O   -1 0 0
   3 O    1     2.8732     5.4295  62 O   -1 0 0
   3 O    1     2.8829     5.4480  76 SI  -1 0 0
   3 O    1     2.9038     5.4874  59 O    0 0 0
   3 O    1     3.3581     6.3459  93 SI   0 0 0
   3 O    1     3.4609     6.5401  57 O   -1 0 0
   3 O    1     3.4620     6.5422  87 SI   0 0 0
   3 O    1     3.4686     6.5547  88 SI   0 0 0
   3 O    1     3.5301     6.6710  79 SI  -1 0 0
   3 O    1     3.5860     6.7766  84 SI  -1 0 0
   3 O    1     3.5955     6.7946  65 O    0 0 0

   4 O    1     1.6991     3.2108  80 SI  -1 0 0
   4 O    1     2.1164     3.9993 165 HF   0 0 0
   4 O    1     2.1910     4.1404 153 HF   0-1 0
   4 O    1     2.5059     4.7354  85 SI   0-1 0
   4 O    1     2.5844     4.8839  54 O    0 0 0
   4 O    1     2.6614     5.0294  66 O    0-1 0
   4 O    1     2.6949     5.0926  57 O   -1 0 0
   4 O    1     2.7424     5.1824  40 O    0 0 0
   4 O    1     2.7720     5.2383  45 O   -1 0 0
   4 O    1     3.2106     6.0672  93 SI   0 0 0
   4 O    1     3.2336     6.1107  82 SI  -1 0 0
   4 O    1     3.3582     6.3461  49 O    0 0 0
   4 O    1     3.5436     6.6964 168 HF  -1 0 0
   4 O    1     3.6115     6.8247  87 SI   0-1 0
   4 O    1     3.7527     7.0916 159 HF  -1 0 0

   5 O    1     1.6718     3.1592 131 SI   0 1 0
   5 O    1     2.1286     4.0225 141 HF   0 0 1
   5 O    1     2.1919     4.1422 122 SI   0 0 0
   5 O    1     2.5195     4.7612 130 SI   0 0 0
   5 O    1     2.5207     4.7635  19 O    0 1 1
   5 O    1     2.6215     4.9539  29 O    0 1 1
   5 O    1     2.7947     5.2813  15 O    0 0 1
   5 O    1     2.9695     5.6115 121 SI   0 0 0
   5 O    1     3.1341     5.9225 123 SI   0 1 0
   5 O    1     3.2019     6.0507 126 SI   0 0 0
   5 O    1     3.2190     6.0830 108 SI   0 1 0
   5 O    1     3.4934     6.6016 101 SI   0 0 0
   5 O    1     3.5111     6.6350  30 O    0 0 0
   5 O    1     3.5540     6.7160  25 O    0 1 0
   5 O    1     3.9730     7.5078  34 O    0 1 1

   6 O    1     1.6825     3.1795 129 SI   0 0 0
   6 O    1     1.7896     3.3819 132 SI   0 0 0
   6 O    1     2.4672     4.6623  34 O    0 0 1
   6 O    1     2.5546     4.8275  30 O    0 0 0
   6 O    1     2.7791     5.2518 140 HF   0 0 1
   6 O    1     2.9197     5.5175  17 O    0 0 1
   6 O    1     2.9553     5.5848 124 SI   0 0 0
   6 O    1     3.0180     5.7032  28 O    0 0 1
   6 O    1     3.0743     5.8095 128 SI   0 0 0
   6 O    1     3.0990     5.8563 145 HF   0 0 1
   6 O    1     3.1030     5.8638 123 SI   0 0 0
   6 O    1     3.4929     6.6006 121 SI   0 0 0
   6 O    1     3.5707     6.7477 107 SI   0 0 0
   6 O    1     3.6590     6.9144 102 SI   0 0 0
   6 O    1     3.7263     7.0416  25 O    0 0 0

   7 O    1     1.6888     3.1913 135 SI   0 1 0
   7 O    1     1.7004     3.2133 134 SI   0 0 0
   7 O    1     2.6537     5.0147  10 O    0 0 1
   7 O    1     2.6583     5.0234  35 O    0 1 1
   7 O    1     2.7197     5.1395 130 SI  -1 0 0
   7 O    1     2.7824     5.2580  22 O    0 0 1
   7 O    1     2.9533     5.5809  25 O   -1 1 0
   7 O    1     3.0447     5.7537 127 SI   0 1 0
   7 O    1     3.2781     6.1946 126 SI   0 0 0
   7 O    1     3.3473     6.3255 125 SI   0 0 0
   7 O    1     3.3725     6.3730 122 SI  -1 0 0
   7 O    1     3.4210     6.4647 120 SI   0 1 0
   7 O    1     3.4449     6.5099 113 SI   0 0 0
   7 O    1     3.4564     6.5316 146 HF   0 0 1
   7 O    1     3.5193     6.6504  19 O   -1 1 1

   8 O    1     1.6695     3.1549 136 SI   0 0 0
   8 O    1     1.7025     3.2173 133 SI   0 0 0
   8 O    1     2.6170     4.9453  20 O    0 0 0
   8 O    1     2.6385     4.9860  12 O    0 0 1
   8 O    1     2.6530     5.0134  13 O    0 0 1
   8 O    1     3.0178     5.7028 138 HF   0 0 1
   8 O    1     3.1580     5.9677 127 SI   0 0 0
   8 O    1     3.2259     6.0960 124 SI  -1 0 0
   8 O    1     3.2299     6.1037 147 HF   0 0 1
   8 O    1     3.2561     6.1532 128 SI   0 0 0
   8 O    1     3.2902     6.2175 125 SI   0 0 0
   8 O    1     3.4444     6.5090  35 O    0 0 1
   8 O    1     3.6076     6.8175 135 SI   0 0 0
   8 O    1     3.7117     7.0142 114 SI   0 0 0
   8 O    1     3.8088     7.1976 119 SI   0 0 0

   9 O    1     1.9331     3.6531 146 HF   0-1 0
   9 O    1     2.0925     3.9542 164 HF   0 0 0
   9 O    1     2.1693     4.0994 138 HF   0 0 0
   9 O    1     2.4471     4.6244  35 O    0 0 0
   9 O    1     2.5636     4.8444  27 O    0 0 0
   9 O    1     2.6701     5.0457  44 O    0 0 0
   9 O    1     2.8502     5.3862  23 O   -1 0 0
   9 O    1     2.8652     5.4145  33 O    0-1 0
   9 O    1     2.8658     5.4155 139 HF  -1 0 0
   9 O    1     2.8786     5.4397  11 O   -1 0 0
   9 O    1     2.8927     5.4664 152 HF   0 0 0
   9 O    1     2.9547     5.5835  24 O    0-1 0
   9 O    1     3.1752     6.0003  48 O    0 0 0
   9 O    1     3.1846     6.0180  14 O    0 0 0
   9 O    1     3.6431     6.8845  22 O    0-1 0

  10 O    1     1.6895     3.1927 134 SI   0 0-1
  10 O    1     2.0290     3.8343 147 HF   0 0 0
  10 O    1     2.6498     5.0074  22 O    0 0 0
  10 O    1     2.6537     5.0147   7 O    0 0-1
  10 O    1     2.7719     5.2381 146 HF   0 0 0
  10 O    1     2.8620     5.4084  26 O    0 0 0
  10 O    1     2.9751     5.6222  20 O    0 0-1
  10 O    1     3.2104     6.0667  33 O    0 0 0
  10 O    1     3.3578     6.3454  12 O    0 0 0
  10 O    1     3.4965     6.6074 125 SI   0 0-1
  10 O    1     3.5669     6.7404 126 SI   0 0-1
  10 O    1     3.5761     6.7579  31 O    0 0 0
  10 O    1     3.5857     6.7760 144 HF   0 0 0
  10 O    1     3.6667     6.9291  24 O    0 0 0
  10 O    1     3.7357     7.0595 130 SI  -1 0-1

  11 O    1     2.0300     3.8362 149 HF   0 0 0
  11 O    1     2.0734     3.9182 139 HF   0 0 0
  11 O    1     2.2260     4.2066 142 HF   0 0 0
  11 O    1     2.4114     4.5569  23 O    0 0 0
[...]
 144 HF   1     2.7458     5.1887  51 O    0 0 0
 144 HF   1     3.0810     5.8222  47 O    0 0 0
 144 HF   1     3.1837     6.0163 137 HF   0 0 0
 144 HF   1     3.1873     6.0232  52 O    0 1 0
 144 HF   1     3.2302     6.1043 141 HF   0 0 0
 144 HF   1     3.3395     6.3107 163 HF   0 0 0
 144 HF   1     3.5789     6.7631 166 HF   0 0 0
 144 HF   1     3.5857     6.7760  10 O    0 0 0
 144 HF   1     3.6614     6.9190 148 HF   0 0 0
 144 HF   1     3.6706     6.9365 152 HF   0 1 0

 145 HF   1     2.0465     3.8673  28 O    0 0 0
 145 HF   1     2.0724     3.9163  21 O    0 0 0
 145 HF   1     2.0751     3.9214  13 O    0 0 0
 145 HF   1     2.1952     4.1483  29 O    0 0 0
 145 HF   1     2.2833     4.3149  34 O    0 0 0
 145 HF   1     2.8827     5.4474  14 O    0 0 0
 145 HF   1     3.0990     5.8563   6 O    0 0-1
 145 HF   1     3.1245     5.9044 152 HF   0 0 0
 145 HF   1     3.5094     6.6318 132 SI   0 0-1
 145 HF   1     3.5340     6.6783 136 SI   0 0-1
 145 HF   1     3.6191     6.8390 138 HF   0 0 0
 145 HF   1     3.6697     6.9347 137 HF   0 0 0
 145 HF   1     3.6734     6.9417 141 HF   0-1 0
 145 HF   1     3.6878     6.9690 131 SI   0 0-1
 145 HF   1     3.6959     6.9843 140 HF   0 0 0

 146 HF   1     1.9024     3.5950  24 O    0 0 0
 146 HF   1     1.9331     3.6531   9 O    0 1 0
 146 HF   1     1.9789     3.7396  33 O    0 0 0
 146 HF   1     2.2178     4.1910  22 O    0 0 0
 146 HF   1     2.5541     4.8265  35 O    0 1 0
 146 HF   1     2.7719     5.2381  10 O    0 0 0
 146 HF   1     3.1358     5.9258  23 O   -1 1 0
 146 HF   1     3.3072     6.2498  26 O    0 0 0
 146 HF   1     3.3790     6.3854 143 HF  -1 0 0
 146 HF   1     3.4044     6.4334 152 HF   0 1 0
 146 HF   1     3.4564     6.5316   7 O    0 0-1
 146 HF   1     3.4752     6.5672 147 HF   0 0 0
 146 HF   1     3.4754     6.5675 139 HF  -1 1 0
 146 HF   1     3.5489     6.7065 138 HF   0 1 0
 146 HF   1     3.6370     6.8729 148 HF   0 0 0

 147 HF   1     1.9276     3.6426  20 O    0 0-1
 147 HF   1     1.9602     3.7043  12 O    0 0 0
 147 HF   1     1.9864     3.7538  18 O    0 0 0
 147 HF   1     2.0290     3.8343  10 O    0 0 0
 147 HF   1     2.2696     4.2889  26 O    0 0 0
 147 HF   1     2.5802     4.8760  22 O    0 0 0
 147 HF   1     3.1833     6.0156 133 SI   0 0-1
 147 HF   1     3.2299     6.1037   8 O    0 0-1
 147 HF   1     3.2303     6.1044  24 O    0 0 0
 147 HF   1     3.2846     6.2071 148 HF   0 0 0
 147 HF   1     3.2870     6.2116 134 SI   0 0-1
 147 HF   1     3.3816     6.3903 137 HF   0 0 0
 147 HF   1     3.4752     6.5672 146 HF   0 0 0
 147 HF   1     3.5388     6.6873 142 HF  -1 0 0
 147 HF   1     3.6677     6.9310 130 SI  -1 0-1

 148 HF   1     2.0631     3.8987  39 O    0 0 0
 148 HF   1     2.0787     3.9282  51 O    0 0 0
 148 HF   1     2.0914     3.9521  24 O    0 0 0
 148 HF   1     2.0963     3.9615  26 O    0 0 0
 148 HF   1     2.1617     4.0850  68 O    0 0 0
 148 HF   1     2.3007     4.3476  18 O    0 0 0
 148 HF   1     2.8759     5.4346 163 HF   0 0 0
 148 HF   1     3.2710     6.1813  53 O   -1 0 0
 148 HF   1     3.2846     6.2071 147 HF   0 0 0
 148 HF   1     3.2940     6.2247 155 HF   0 0 0
 148 HF   1     3.3938     6.4134  63 O   -1 0 0
 148 HF   1     3.5430     6.6952 151 HF  -1 0 0
 148 HF   1     3.5784     6.7621  47 O    0 0 0
 148 HF   1     3.5916     6.7871  48 O    0 1 0
 148 HF   1     3.5917     6.7874  50 O    0 0 0

 149 HF   1     1.9099     3.6092  46 O    0 0 0
 149 HF   1     2.0300     3.8362  11 O    0 0 0
 149 HF   1     2.0336     3.8430  41 O    0 0 0
 149 HF   1     2.0433     3.8613  21 O    0 0 0
 149 HF   1     2.2673     4.2845  58 O    0 0 0
 149 HF   1     2.3118     4.3687  23 O    0 0 0
 149 HF   1     3.2492     6.1401 139 HF   0 0 0
 149 HF   1     3.3085     6.2522 164 HF   1 0 0
 149 HF   1     3.3088     6.2527 162 HF   0 0 0
 149 HF   1     3.3248     6.2829  52 O    0 0 0
 149 HF   1     3.5478     6.7043  32 O    0-1 0
 149 HF   1     3.5913     6.7865 154 HF   0-1 0
 149 HF   1     3.6294     6.8586 152 HF   0 0 0
 149 HF   1     3.6805     6.9551 168 HF   0 0 0
 149 HF   1     3.8081     7.1963  34 O    0 0 0

 150 HF   1     1.9379     3.6621  42 O    0 0 0
 150 HF   1     2.0150     3.8079  65 O    0 0 0
 150 HF   1     2.0490     3.8720  70 O    0 0 0
 150 HF   1     2.0957     3.9603   1 O    0 0 0
 150 HF   1     2.6179     4.9470  86 SI   0 0 0
 150 HF   1     2.8451     5.3765  49 O    0 0 0
 150 HF   1     2.9952     5.6601 161 HF   0 0 0
 150 HF   1     3.0838     5.8274  50 O    0 0 0
 150 HF   1     3.1880     6.0245  91 SI   0 0 0
 150 HF   1     3.3711     6.3704  88 SI   0 0 0
 150 HF   1     3.3846     6.3960 156 HF   0 0 0
 150 HF   1     3.4120     6.4478  79 SI   0 0 0
 150 HF   1     3.4357     6.4925  43 O    0 0 0
 150 HF   1     3.5869     6.7782 155 HF   0 0 0
 150 HF   1     3.6575     6.9116  92 SI   0 0 0

 151 HF   1     2.0613     3.8952  48 O    1 1 0
 151 HF   1     2.0837     3.9376  39 O    1 0 0
 151 HF   1     2.1369     4.0381  45 O    0 1 0
 151 HF   1     2.1805     4.1205  53 O    0 0 0
 151 HF   1     2.2726     4.2947  64 O    0 0 0
 151 HF   1     2.3000     4.3463  41 O    0 1 0
 151 HF   1     3.0772     5.8151  58 O    0 1 0
 151 HF   1     3.1019     5.8618 168 HF   0 1 0
 151 HF   1     3.1637     5.9785  24 O    1 0 0
 151 HF   1     3.3779     6.3833 154 HF   0 0 0
 151 HF   1     3.5430     6.6952 148 HF   1 0 0
 151 HF   1     3.5610     6.7294 153 HF   1 0 0
 151 HF   1     3.5779     6.7612 157 HF   0 0 0
 151 HF   1     3.5981     6.7994  23 O    0 1 0
 151 HF   1     3.6076     6.8174 166 HF   0 0 0

 152 HF   1     2.0369     3.8491  14 O    0 0 0
 152 HF   1     2.0787     3.9282  52 O    0 0 0
 152 HF   1     2.1324     4.0296  21 O    0 0 0
 152 HF   1     2.1526     4.0679  33 O    0-1 0
 152 HF   1     2.1652     4.0917  44 O    0 0 0
 152 HF   1     2.8927     5.4664   9 O    0 0 0
 152 HF   1     3.0630     5.7882 167 HF   0 0 0
 152 HF   1     3.1245     5.9044 145 HF   0 0 0
 152 HF   1     3.1420     5.9376 138 HF   0 0 0
 152 HF   1     3.4044     6.4334 146 HF   0-1 0
 152 HF   1     3.4498     6.5192  43 O    0 0 0
 152 HF   1     3.6294     6.8586 149 HF   0 0 0
 152 HF   1     3.6706     6.9365 144 HF   0-1 0
 152 HF   1     3.7321     7.0526 164 HF   0 0 0
 152 HF   1     3.7524     7.0910  13 O    0 0 0

 153 HF   1     1.9024     3.5951  59 O    0 0 0
 153 HF   1     2.0268     3.8301  45 O   -1 1 0
 153 HF   1     2.1498     4.0626  60 O   -1 0 0
 153 HF   1     2.1910     4.1404   4 O    0 1 0
 153 HF   1     2.2889     4.3254  66 O    0 0 0
 153 HF   1     2.5102     4.7436  85 SI   0 0 0
 153 HF   1     3.0499     5.7635  74 SI  -1 0 0
 153 HF   1     3.3085     6.2522 165 HF   0 1 0
 153 HF   1     3.3653     6.3595  87 SI   0 0 0
 153 HF   1     3.4069     6.4381 157 HF  -1 0 0
 153 HF   1     3.5039     6.6215 155 HF   0 0 0
 153 HF   1     3.5131     6.6389  61 O    0 0 0
 153 HF   1     3.5453     6.6997  80 SI  -1 1 0
 153 HF   1     3.5610     6.7294 151 HF  -1 0 0
 153 HF   1     3.5708     6.7479  54 O    0 1 0

 154 HF   1     1.9707     3.7240  41 O    0 1 0
 154 HF   1     2.0624     3.8973  52 O    0 1 0
 154 HF   1     2.0646     3.9015  71 O    0 1 0
 154 HF   1     2.1404     4.0448  37 O    0 0 0
 154 HF   1     2.1551     4.0725  64 O    0 0 0
 154 HF   1     2.1735     4.1073  38 O    0 0 0
 154 HF   1     3.2465     6.1351 158 HF   0 1 0
 154 HF   1     3.3779     6.3833 151 HF   0 0 0
 154 HF   1     3.4532     6.5257 167 HF   0 1 0
 154 HF   1     3.4961     6.6066 168 HF   0 1 0
 154 HF   1     3.5185     6.6490  67 O    0 0 0
 154 HF   1     3.5424     6.6942  51 O    0 0 0
 154 HF   1     3.5759     6.7575  53 O    0 0 0
 154 HF   1     3.5913     6.7865 149 HF   0 1 0
 154 HF   1     3.6733     6.9415 166 HF   0 0 0

 155 HF   1     1.8995     3.5896  59 O    0 0 0
 155 HF   1     2.0552     3.8837  39 O    0 0 0
 155 HF   1     2.0909     3.9513  65 O    0 0 0
 155 HF   1     2.1061     3.9800  62 O   -1 0 0
 155 HF   1     2.1425     4.0487  50 O    0 0 0
 155 HF   1     2.1562     4.0746  68 O    0 0 0
 155 HF   1     3.2910     6.2192 163 HF   0 0 0
 155 HF   1     3.2940     6.2247 148 HF   0 0 0
 155 HF   1     3.3248     6.2830  36 O    0 0 0
 155 HF   1     3.4540     6.5271 157 HF  -1 0 0
 155 HF   1     3.4676     6.5528 156 HF   0 0 0
 155 HF   1     3.5039     6.6215 153 HF   0 0 0
 155 HF   1     3.5869     6.7782 150 HF   0 0 0
 155 HF   1     3.6122     6.8260   3 O    0 0 0
 155 HF   1     3.6356     6.8704 160 HF   0 0 0

 156 HF   1     2.0002     3.7798  43 O    0 0 0
 156 HF   1     2.0180     3.8135  36 O    0 0 0
 156 HF   1     2.0923     3.9540  65 O    0 0 0
 156 HF   1     2.0936     3.9563  56 O    0 0 0
 156 HF   1     2.1859     4.1307  44 O    0 0 0
 156 HF   1     2.5524     4.8233  68 O    0 0 0
 156 HF   1     3.1567     5.9653 164 HF   0 0 0
 156 HF   1     3.3190     6.2719  40 O    0 0 0
 156 HF   1     3.3846     6.3960 150 HF   0 0 0
 156 HF   1     3.4355     6.4922  70 O    0 0 0
 156 HF   1     3.4393     6.4994  42 O    0 0 0
 156 HF   1     3.4676     6.5528 155 HF   0 0 0
 156 HF   1     3.5178     6.6477 165 HF   0 0 0
 156 HF   1     3.5407     6.6910 167 HF   0 0 0
 156 HF   1     3.5627     6.7325 161 HF   0 0 0

 157 HF   1     1.9926     3.7655  64 O    0 0 0
 157 HF   1     2.1019     3.9721  60 O    0 0 0
 157 HF   1     2.1062     3.9802  55 O    0 0 0
 157 HF   1     2.1524     4.0674  62 O    0 0 0
 157 HF   1     2.5978     4.9092  69 O    0 0 0
 157 HF   1     3.3645     6.3579  67 O    0 0 0
 157 HF   1     3.3921     6.4102  59 O    1 0 0
 157 HF   1     3.4069     6.4381 153 HF   1 0 0
 157 HF   1     3.4444     6.5090  42 O    0 0 0
 157 HF   1     3.4490     6.5177  74 SI   0 0 0
 157 HF   1     3.4540     6.5271 155 HF   1 0 0
 157 HF   1     3.4595     6.5376 166 HF   0 0 0
 157 HF   1     3.4894     6.5940 159 HF   0 0 0
 157 HF   1     3.5177     6.6476  39 O    1 0 0
 157 HF   1     3.5779     6.7612 151 HF   0 0 0

 158 HF   1     2.1011     3.9706  56 O    0 0 0
 158 HF   1     2.1374     4.0392  71 O    0 0 0
 158 HF   1     2.1708     4.1022  70 O    0 0 0
 158 HF   1     2.1977     4.1530   2 O    0 0 0
 158 HF   1     2.2277     4.2097  37 O    0-1 0
 158 HF   1     2.5758     4.8675  92 SI   0 0 0
 158 HF   1     2.9275     5.5321  43 O    0 0 0
 158 HF   1     3.2231     6.0907 161 HF   0 0 0
 158 HF   1     3.2465     6.1351 154 HF   0-1 0
 158 HF   1     3.2597     6.1599 165 HF   0 0 0
 158 HF   1     3.3892     6.4047  49 O    0 0 0
 158 HF   1     3.3943     6.4142  66 O    0-1 0
 158 HF   1     3.4035     6.4316 160 HF   0-1 0
 158 HF   1     3.4186     6.4603 167 HF   0 0 0
 158 HF   1     3.4235     6.4695  52 O    0 0 0

 159 HF   1     2.0139     3.8058  57 O    0 0 0
 159 HF   1     2.0418     3.8584   3 O    1 0 0
 159 HF   1     2.0900     3.9495  69 O    0 0 0
 159 HF   1     2.1084     3.9843  40 O    1 0 0
 159 HF   1     2.1331     4.0310  62 O    0 0 0
 159 HF   1     2.5953     4.9045  72 O    0 0 0
 159 HF   1     2.7659     5.2269  91 SI   1 0 0
 159 HF   1     3.2168     6.0788  80 SI   0 0 0
 159 HF   1     3.2848     6.2074  79 SI   0 0 0
 159 HF   1     3.3520     6.3343 168 HF   0 0 0
 159 HF   1     3.4003     6.4257  65 O    1 0 0
 159 HF   1     3.4056     6.4356  74 SI   0 0 0
 159 HF   1     3.4894     6.5940 157 HF   0 0 0
 159 HF   1     3.5570     6.7218 162 HF   0 0 0
 159 HF   1     3.5890     6.7821 165 HF   1 0 0

 160 HF   1     1.9180     3.6245  50 O    0 0 0
 160 HF   1     2.0405     3.8560  67 O    0 0 0
 160 HF   1     2.0412     3.8572  61 O    0 0 0
 160 HF   1     2.1046     3.9771  37 O    0 0 0
 160 HF   1     2.1453     4.0541  66 O    0 0 0
 160 HF   1     2.9011     5.4822  59 O    0 0 0
 160 HF   1     2.9541     5.5825  86 SI   0 0 0
 160 HF   1     3.0120     5.6918  85 SI   0 0 0
 160 HF   1     3.2317     6.1070  73 SI   0 0 0
 160 HF   1     3.2549     6.1509   2 O    0 1 0
 160 HF   1     3.2830     6.2040  54 O    0 1 0
 160 HF   1     3.4035     6.4316 158 HF   0 1 0
 160 HF   1     3.4665     6.5507  42 O    0 0 0
 160 HF   1     3.6004     6.8038 163 HF   0 0 0
 160 HF   1     3.6356     6.8704 155 HF   0 0 0

 161 HF   1     1.9016     3.5935  43 O    0 0 0
 161 HF   1     1.9788     3.7395  42 O    0 0 0
 161 HF   1     1.9918     3.7639  70 O    0 0 0
 161 HF   1     2.0746     3.9204  72 O    0 0 0
 161 HF   1     2.2906     4.3287  55 O    0 0 0
 161 HF   1     2.8927     5.4665  69 O    0 0 0
 161 HF   1     2.9746     5.6212  46 O    0 0 0
 161 HF   1     2.9952     5.6601 150 HF   0 0 0
 161 HF   1     3.2231     6.0907 158 HF   0 0 0
 161 HF   1     3.2924     6.2218 162 HF   0 0 0
 161 HF   1     3.4586     6.5358  71 O    0 0 0
 161 HF   1     3.5627     6.7325 156 HF   0 0 0
 161 HF   1     3.5785     6.7624 157 HF   0 0 0
 161 HF   1     3.5835     6.7718  47 O    0 0 0
 161 HF   1     3.6811     6.9562   1 O    0 0 0

 162 HF   1     1.9516     3.6880  63 O    0 0 0
 162 HF   1     2.0324     3.8406  72 O    0 0 0
 162 HF   1     2.0932     3.9556  36 O    1 0 0
 162 HF   1     2.0947     3.9585  46 O    0 0 0
 162 HF   1     2.1220     4.0101  58 O    0 0 0
 162 HF   1     2.5016     4.7273  55 O    0 0 0
 162 HF   1     2.5507     4.8201  62 O    0 0 0
 162 HF   1     3.0078     5.6839 164 HF   1 0 0
 162 HF   1     3.0618     5.7860 168 HF   0 0 0
 162 HF   1     3.2924     6.2218 161 HF   0 0 0
 162 HF   1     3.2967     6.2298 142 HF   0 0 0
 162 HF   1     3.3042     6.2441  40 O    1 0 0
 162 HF   1     3.3088     6.2527 149 HF   0 0 0
 162 HF   1     3.3151     6.2646  11 O    0 0 0
 162 HF   1     3.3764     6.3805 166 HF   0 0 0

 163 HF   1     1.9897     3.7600  47 O    0 0 0
 163 HF   1     2.0382     3.8517  51 O    0 0 0
 163 HF   1     2.0415     3.8578  68 O    0 0 0
 163 HF   1     2.0617     3.8960  50 O    0 0 0
 163 HF   1     2.3501     4.4411  38 O    0 0 0
 163 HF   1     2.4712     4.6700  42 O    0 0 0
 163 HF   1     2.8759     5.4346 148 HF   0 0 0
 163 HF   1     3.2019     6.0506  26 O    0 0 0
 163 HF   1     3.2910     6.2192 155 HF   0 0 0
 163 HF   1     3.3395     6.3107 144 HF   0 0 0
 163 HF   1     3.3891     6.4045  37 O    0 0 0
 163 HF   1     3.5388     6.6874  65 O    0 0 0
 163 HF   1     3.5744     6.7547  55 O    0 0 0
 163 HF   1     3.5948     6.7931  39 O    0 0 0
 163 HF   1     3.6004     6.8038 160 HF   0 0 0

 164 HF   1     2.0249     3.8265  36 O    0 0 0
 164 HF   1     2.0805     3.9315  58 O   -1 0 0
 164 HF   1     2.0849     3.9399  27 O    0 0 0
 164 HF   1     2.0925     3.9542   9 O    0 0 0
 164 HF   1     2.1019     3.9720  44 O    0 0 0
 164 HF   1     2.4041     4.5431  48 O    0 0 0
 164 HF   1     2.4736     4.6744  11 O   -1 0 0
 164 HF   1     3.0078     5.6839 162 HF  -1 0 0
 164 HF   1     3.1567     5.9653 156 HF   0 0 0
 164 HF   1     3.2683     6.1763  23 O   -1 0 0
 164 HF   1     3.2769     6.1925 138 HF   0 0 0
 164 HF   1     3.3085     6.2522 149 HF  -1 0 0
 164 HF   1     3.4304     6.4825 142 HF  -1 0 0
 164 HF   1     3.4424     6.5052 167 HF   0 0 0
 164 HF   1     3.7321     7.0526 152 HF   0 0 0

 165 HF   1     2.0014     3.7820  66 O    0-1 0
 165 HF   1     2.0625     3.8975  40 O    0 0 0
 165 HF   1     2.0958     3.9605  49 O    0 0 0
 165 HF   1     2.1164     3.9993   4 O    0 0 0
 165 HF   1     2.1272     4.0198  56 O    0 0 0
 165 HF   1     2.5028     4.7297  54 O    0 0 0
 165 HF   1     2.9411     5.5579  92 SI   0 0 0
 165 HF   1     3.1751     6.0000  91 SI   0 0 0
 165 HF   1     3.2492     6.1400  45 O   -1 0 0
 165 HF   1     3.2597     6.1599 158 HF   0 0 0
 165 HF   1     3.2848     6.2073  85 SI   0-1 0
 165 HF   1     3.3085     6.2522 153 HF   0-1 0
 165 HF   1     3.3628     6.3548  80 SI  -1 0 0
 165 HF   1     3.5178     6.6477 156 HF   0 0 0
 165 HF   1     3.5890     6.7821 159 HF  -1 0 0

 166 HF   1     1.9290     3.6453  16 O    0 0 0
 166 HF   1     1.9648     3.7129  53 O    0 0 0
 166 HF   1     2.0689     3.9097  55 O    0 0 0
 166 HF   1     2.0969     3.9627  63 O    0 0 0
 166 HF   1     2.1733     4.1070  38 O    0 0 0
 166 HF   1     2.8294     5.3467  64 O    0 0 0
 166 HF   1     2.9064     5.4923  47 O    0 0 0
 166 HF   1     3.2334     6.1103  32 O    0 0 0
 166 HF   1     3.3764     6.3805 162 HF   0 0 0
 166 HF   1     3.3954     6.4163 143 HF   0 0 0
 166 HF   1     3.4212     6.4652 142 HF   0 0 0
 166 HF   1     3.4248     6.4720  31 O    0 0 0
 166 HF   1     3.4595     6.5376 157 HF   0 0 0
 166 HF   1     3.4993     6.6128  46 O    0 0 0
 166 HF   1     3.5789     6.7631 144 HF   0 0 0

 167 HF   1     2.0433     3.8612  48 O    0 0 0
 167 HF   1     2.1379     4.0401  51 O    0-1 0
 167 HF   1     2.1459     4.0552  44 O    0 0 0
 167 HF   1     2.1879     4.1345  52 O    0 0 0
 167 HF   1     2.2548     4.2610  37 O    0-1 0
 167 HF   1     2.3317     4.4064  56 O    0 0 0
 167 HF   1     3.0630     5.7882 152 HF   0 0 0
 167 HF   1     3.0798     5.8200  66 O    0-1 0
 167 HF   1     3.3817     6.3904  33 O    0-1 0
 167 HF   1     3.4186     6.4603 158 HF   0 0 0
 167 HF   1     3.4424     6.5052 164 HF   0 0 0
 167 HF   1     3.4532     6.5257 154 HF   0-1 0
 167 HF   1     3.5407     6.6910 156 HF   0 0 0
 167 HF   1     3.5658     6.7385  50 O    0-1 0
 167 HF   1     3.5740     6.7538  24 O    0-1 0

 168 HF   1     1.9675     3.7180  45 O    0 0 0
 168 HF   1     2.0186     3.8146  58 O    0 0 0
 168 HF   1     2.0473     3.8688  71 O    0 0 0
 168 HF   1     2.0521     3.8779  72 O    0 0 0
 168 HF   1     2.1825     4.1243  40 O    1 0 0
 168 HF   1     2.8982     5.4767  57 O    0 0 0
 168 HF   1     2.9128     5.5044  41 O    0 0 0
 168 HF   1     3.0618     5.7860 162 HF   0 0 0
 168 HF   1     3.1019     5.8618 151 HF   0-1 0
 168 HF   1     3.3520     6.3343 159 HF   0 0 0
 168 HF   1     3.4142     6.4518  48 O    1 0 0
 168 HF   1     3.4961     6.6066 154 HF   0-1 0
 168 HF   1     3.5396     6.6888  36 O    1 0 0
 168 HF   1     3.5425     6.6944  46 O    0 0 0
 168 HF   1     3.5436     6.6964   4 O    1 0 0


 SYMMETRY ALLOWED INTERNAL DEGREE(S) OF FREEDOM: 501
 TTTTTTTTTTTTTTTTTTTTTTTTTTTTTT SYMM        TELAPSE       16.46 TCPU       16.45
 TTTTTTTTTTTTTTTTTTTTTTTTTTTTTT INT_SCREEN  TELAPSE       22.18 TCPU       22.15
 INFORMATION **** EXCBUF **** EXCH. BIPO BUFFER: WORDS USED =      360000
 WARNING **** EXCBUF **** EXCH. BIPO BUFFER TOO SMALL - TO AVOID I/O SET EXCHSIZE =    31628070

 DFT PARAMETERS

     ATOM       ELECTRONS   NET CHARGE   R(ANGSTROM)
   1   8  O       9.7778     -1.7778     1.32666667
  73  14  SI     14.0000      0.0000     1.17000000
 137 272  HF      8.0000      4.0000     0.71000000
forrtl: error (69): process interrupted (SIGINT)
Image              PC                Routine            Line        Source             
crystal            0000000000B9F499  Unknown               Unknown  Unknown
crystal            0000000000B9DE10  Unknown               Unknown  Unknown
crystal            0000000000B505A2  Unknown               Unknown  Unknown
crystal            0000000000AFDEE3  Unknown               Unknown  Unknown
crystal            0000000000B03C35  Unknown               Unknown  Unknown
libpthread.so.0    00007FFFEC1E2850  Unknown               Unknown  Unknown
crystal            000000000061DD78  Unknown               Unknown  Unknown
crystal            0000000000631A58  Unknown               Unknown  Unknown
crystal            0000000000624532  Unknown               Unknown  Unknown
crystal            000000000070AE26  Unknown               Unknown  Unknown
crystal            000000000043926F  Unknown               Unknown  Unknown
crystal            0000000000438F86  Unknown               Unknown  Unknown
libc.so.6          00007FFFEBE75C36  Unknown               Unknown  Unknown
crystal            0000000000438E79  Unknown               Unknown  Unknown
