
         
 *******************************************************************************
 *                                                                             *
 *                                CRYSTAL09                                    *
 *                              public : 2.0                                   *
 *                      December 10th, 2012 - sequential executable            *
 *                                                                             *
 *                                                                             *
 *                                                                             *
 *                              MAIN AUTHORS                                   *
 *                                                                             *
 *    R. DOVESI(1,10), V.R. SAUNDERS(2), C. ROETTI(1,10), R. ORLANDO (1,3),    *
 *  C.M. ZICOVICH-WILSON(1,4), F. PASCALE(5), B. CIVALLERI(1,10), K. DOLL(6),  *
 *       N.M. HARRISON(2,7), I. J. BUSH(2), Ph. D'ARCO(8), M. LLUNELL(9)       *
 *                                                                             *
 * (1) THEORETICAL CHEMISTRY GROUP - UNIVERSITA' DI TORINO - TORINO (ITALY)    *
 *      http://www.crystal.unito.it                                            *
 * (2) COMPUTATIONAL SCIENCE & ENGINEERING DEPARTMENT - CCLRC DARESBURY (UK)   *
 *     http://www.cse.clrc.ac.uk/cmg/CRYSTAL/                                  *
 * (3) UNIVERSITA' DEL PIEMONTE ORIENTALE - ALESSANDRIA (ITALY)                *
 * (4) UNIVERSIDAD AUTONOMA DEL ESTADO DE MORELOS - CUERNAVACA (MEXICO)        *
 * (5) UNIVERSITE' HENRI POINCARE' - NANCY (FRANCE)                            *
 * (6) MPI FUER FESTKOERPERFORSCHUNG - STUTTGART (GERMANY)                     *
 * (7) IMPERIAL COLLEGE - LONDON (UK)                                          *
 * (8) UNIVERSITE' PIERRE ET MARIE CURIE - PARIS (FRANCE)                      *
 * (9) UNIVERSIDAD DE BARCELONA - BARCELONA (SPAIN)                            *
 *(10) NIS - NANOSTRUCTURED INTERFACES AND SURFACES - TORINO (ITALY)           *
 *     http://www.crystal.unito.it                                             *
 *******************************************************************************
 EEEEEEEEEE STARTING  DATE 15 10 2015 TIME 16:35:08.4
 Created with astools                                                            

 CRYSTAL CALCULATION
 (INPUT ACCORDING TO THE INTERNATIONAL TABLES FOR X-RAY CRYSTALLOGRAPHY)
 CRYSTAL FAMILY                       :  TRICLINIC   
 CRYSTAL CLASS  (GROTH - 1921)        :  TRICLINIC PEDIAL                     

 SPACE GROUP (NONCENTROSYMMETRIC)     :  P 1             

 LATTICE PARAMETERS  (ANGSTROMS AND DEGREES) - CONVENTIONAL CELL
        A           B           C        ALPHA        BETA       GAMMA
    10.59622    10.58937    21.67319    90.00000    90.00000    90.00000


 NUMBER OF IRREDUCIBLE ATOMS IN THE CONVENTIONAL CELL:  160

 INPUT COORDINATES

 ATOM AT. N.              COORDINATES
   1   8     8.547430000000E-01  7.488750000000E-01  6.054990000000E-01
   2   8     5.043330000000E-01  2.865300000000E-01  5.979130000000E-01
   3   8     8.215170000000E-01  7.830540000000E-01  4.873180000000E-01
   4   8     1.770820000000E-01  1.749390000000E-01  5.354580000000E-01
   5   8     2.987950000000E-01  9.758130000000E-01  6.202840000000E-01
   6   8     2.058510000000E-01  6.087620000000E-01  6.325400000000E-01
   7   8     4.949060000000E-01  7.339960000000E-01  5.747190000000E-01
   8   8     7.347770000000E-01  5.503000000000E-03  5.813900000000E-01
   9   8     6.882240000000E-01  6.064110000000E-01  5.282500000000E-01
  10   8     2.360690000000E-01  7.355770000000E-01  5.359810000000E-01
  11   8     1.691000000000E-03  9.648170000000E-01  5.290690000000E-01
  12   8     4.812340000000E-01  8.419600000000E-02  5.345570000000E-01
  13   8     6.785030000000E-01  4.421830000000E-01  6.561500000000E-01
  14   8     8.121150000000E-01  4.084380000000E-01  5.674730000000E-01
  15   8     4.415740000000E-01  5.107330000000E-01  6.496630000000E-01
  16   8     2.772250000000E-01  4.296620000000E-01  5.570100000000E-01
  17   8     5.065800000000E-02  6.104550000000E-01  5.170140000000E-01
  18   8     7.545220000000E-01  9.220110000000E-01  9.362620000000E-01
  19   8     7.862820000000E-01  1.699760000000E-01  8.806520000000E-01
  20   8     5.347180000000E-01  8.212250000000E-01  8.835600000000E-01
  21   8     5.617700000000E-02  2.280070000000E-01  9.035250000000E-01
  22   8     8.647420000000E-01  8.718330000000E-01  7.179910000000E-01
  23   8     5.696910000000E-01  6.964440000000E-01 -4.873000000000E-03
  24   8     8.123560000000E-01  6.025470000000E-01  7.675850000000E-01
  25   8     4.526620000000E-01  4.808570000000E-01  7.965000000000E-03
  26   8     5.969070000000E-01  9.203190000000E-01  6.617410000000E-01
  27   8     3.084880000000E-01  3.613130000000E-01  9.301160000000E-01
  28   8     2.836400000000E-02  5.354000000000E-03  6.597300000000E-01
  29   8     2.128950000000E-01  6.899500000000E-01  8.157650000000E-01
  30   8     7.223030000000E-01  1.978490000000E-01  6.142000000000E-03
  31   8     5.346570000000E-01  5.033900000000E-02  9.575030000000E-01
  32   8     9.359280000000E-01  9.967420000000E-01  2.153000000000E-03
  33   8     9.695890000000E-01  5.260970000000E-01  6.267110000000E-01
  34   8     6.596750000000E-01  3.826210000000E-01  7.775140000000E-01
  35   8     6.324610000000E-01  6.931300000000E-01  6.882430000000E-01
  36   8     9.384610000000E-01  4.162260000000E-01  5.159000000000E-03
  37   8     7.677300000000E-02  5.600290000000E-01  9.260450000000E-01
  38   8     2.425240000000E-01  9.365450000000E-01  7.507810000000E-01
  39   8     2.599620000000E-01  1.900470000000E-01  7.158170000000E-01
  40   8     9.739030000000E-01  8.007960000000E-01  8.191230000000E-01
  41   8     1.006410000000E-01  4.951290000000E-01  7.932050000000E-01
  42   8     1.367880000000E-01  5.631450000000E-01  4.175100000000E-02
  43   8     7.687710000000E-01  1.732960000000E-01  6.727250000000E-01
  44   8     1.137210000000E-01  9.027140000000E-01  9.046760000000E-01
  45   8     5.592330000000E-01  6.244720000000E-01  8.069410000000E-01
  46   8     2.714070000000E-01  1.977230000000E-01  8.383050000000E-01
  47   8     1.007490000000E+00  9.479900000000E-02  7.694330000000E-01
  48   8     5.076720000000E-01  1.727150000000E-01  8.319780000000E-01
  49   8     7.375700000000E-01  6.332360000000E-01  9.018400000000E-01
  50   8     2.404900000000E-02  2.771160000000E-01  6.355590000000E-01
  51   8     3.980550000000E-01  4.335710000000E-01  7.669670000000E-01
  52   8     9.136850000000E-01  3.364720000000E-01  7.362830000000E-01
  53   8     3.653330000000E-01  7.236980000000E-01  7.273790000000E-01
  54   8     9.006260000000E-01  4.077790000000E-01  8.531270000000E-01
  55   8     3.668740000000E-01  6.633410000000E-01  9.010190000000E-01
  56   8     2.912670000000E-01  8.239110000000E-01  9.790030000000E-01
  57   8     4.918840000000E-01  9.250230000000E-01  7.696180000000E-01
  58   8     2.076040000000E-01  4.079480000000E-01  6.893540000000E-01
  59   8     7.398100000000E-02  7.337840000000E-01  7.075100000000E-01
  60   8     4.868330000000E-01  1.577620000000E-01  6.956530000000E-01
  61   8     7.188390000000E-01  9.601200000000E-01  8.156140000000E-01
  62   8     5.626380000000E-01  4.422430000000E-01  8.890330000000E-01
  63   8     1.499890000000E-01  1.194620000000E-01 -7.968000000000E-03
  64   8     3.558770000000E-01  9.723900000000E-01  8.616450000000E-01
  65  14     6.156000000000E-02  6.043700000000E-02  4.747700000000E-02
  66  14     3.433570000000E-01  3.666740000000E-01  7.728000000000E-03
  67  14     1.969870000000E-01  4.401240000000E-01  8.103800000000E-02
  68  14     4.267350000000E-01  2.077160000000E-01  7.738000000000E-02
  69  14     6.999000000000E-02  3.308140000000E-01  1.541000000000E-01
  70  14     3.081310000000E-01  7.930600000000E-02  1.499360000000E-01
  71  14     1.866660000000E-01  1.981750000000E-01  2.182140000000E-01
  72  14     4.325980000000E-01  4.329900000000E-01  2.226740000000E-01
  73  14     6.602000000000E-03  5.573250000000E-01 -1.510000000000E-04
  74  14     3.180860000000E-01  8.395030000000E-01  5.944500000000E-02
  75  14     1.634200000000E-01  9.306210000000E-01  1.129260000000E-01
  76  14     4.167320000000E-01  6.876690000000E-01  1.162730000000E-01
  77  14     2.139600000000E-02  7.866730000000E-01  1.505080000000E-01
  78  14     2.954420000000E-01  5.409360000000E-01  1.628050000000E-01
  79  14     1.686710000000E-01  6.835120000000E-01  2.136100000000E-01
  80  14     4.302240000000E-01  9.538770000000E-01  2.166860000000E-01
  81  14     5.911440000000E-01  1.090210000000E-01  2.566900000000E-02
  82  14     8.233290000000E-01  3.183150000000E-01  3.845300000000E-02
  83  14     6.892160000000E-01  4.497350000000E-01  9.605700000000E-02
  84  14     9.354350000000E-01  1.929150000000E-01  1.059130000000E-01
  85  14     5.509170000000E-01  3.175870000000E-01  1.515060000000E-01
  86  14     7.938410000000E-01  5.481300000000E-02  1.532110000000E-01
  87  14     6.718690000000E-01  1.853910000000E-01  2.148240000000E-01
  88  14     9.341010000000E-01  4.491610000000E-01  2.152060000000E-01
  89  14     5.401370000000E-01  5.808550000000E-01  4.959300000000E-02
  90  14     8.221840000000E-01  8.704770000000E-01  4.141000000000E-03
  91  14     6.744180000000E-01  9.400390000000E-01  8.010000000000E-02
  92  14     9.004610000000E-01  7.018040000000E-01  6.546000000000E-02
  93  14     5.603340000000E-01  8.291700000000E-01  1.562230000000E-01
  94  14     8.139090000000E-01  5.851280000000E-01  1.532590000000E-01
  95  14     6.804460000000E-01  7.002290000000E-01  2.190010000000E-01
  96  14     9.219140000000E-01  9.315370000000E-01  2.156920000000E-01
  97  14     5.501100000000E-02  6.154300000000E-02  2.751490000000E-01
  98  14     3.080170000000E-01  3.138390000000E-01  2.863340000000E-01
  99  14     5.603500000000E-02  5.662260000000E-01  2.816360000000E-01
 100  14     2.999430000000E-01  8.155320000000E-01  2.737200000000E-01
 101  14     5.515430000000E-01  7.018500000000E-02  2.847400000000E-01
 102  14     8.068880000000E-01  3.106410000000E-01  2.727230000000E-01
 103  14     5.476310000000E-01  5.760430000000E-01  2.797740000000E-01
 104  14     7.998390000000E-01  8.230100000000E-01  2.851600000000E-01
 105  14     1.804780000000E-01  4.438050000000E-01  3.445970000000E-01
 106  14     4.319720000000E-01  1.942910000000E-01  3.499900000000E-01
 107  14     4.303800000000E-02  3.163150000000E-01  3.980540000000E-01
 108  14     3.113150000000E-01  6.005200000000E-02  4.082670000000E-01
 109  14     1.816290000000E-01  2.019370000000E-01  4.550710000000E-01
 110  14     4.407900000000E-01  4.376960000000E-01  4.699550000000E-01
 111  14     1.860340000000E-01  9.429640000000E-01  3.406010000000E-01
 112  14     4.197890000000E-01  6.984440000000E-01  3.468140000000E-01
 113  14     5.994800000000E-02  8.193370000000E-01  4.041570000000E-01
 114  14     3.017460000000E-01  5.626540000000E-01  4.123650000000E-01
 115  14     1.615830000000E-01  6.824480000000E-01  4.726520000000E-01
 116  14     4.147840000000E-01  9.507720000000E-01  4.885630000000E-01
 117  14     6.760700000000E-01  4.386430000000E-01  3.311470000000E-01
 118  14     9.234170000000E-01  1.787850000000E-01  3.397140000000E-01
 119  14     5.708650000000E-01  3.233300000000E-01  4.044270000000E-01
 120  14     8.010420000000E-01  6.893300000000E-02  4.150630000000E-01
 121  14     7.241960000000E-01  2.454650000000E-01  4.712660000000E-01
 122  14     8.891220000000E-01  4.042670000000E-01  4.565970000000E-01
 123  14     6.742780000000E-01  9.442770000000E-01  3.499510000000E-01
 124  14     9.351020000000E-01  6.965470000000E-01  3.406340000000E-01
 125  14     5.413040000000E-01  8.297720000000E-01  4.149180000000E-01
 126  14     8.066130000000E-01  5.566180000000E-01  3.912920000000E-01
 127  14     6.979510000000E-01  6.925360000000E-01  4.564750000000E-01
 128  14     9.159750000000E-01  9.134200000000E-01  4.696310000000E-01
 129 272     8.379270000000E-01  7.082000000000E-03  6.547760000000E-01
 130 272     8.771970000000E-01  5.803040000000E-01  5.468440000000E-01
 131 272     6.599750000000E-01  7.684230000000E-01  6.084930000000E-01
 132 272     5.470400000000E-02  7.241340000000E-01  6.116370000000E-01
 133 272     3.603450000000E-01  2.435790000000E-01  5.365250000000E-01
 134 272     1.290370000000E-01  4.273890000000E-01  6.100900000000E-01
 135 272     3.591540000000E-01  6.085990000000E-01  5.733570000000E-01
 136 272     8.400610000000E-01  3.437670000000E-01  6.521310000000E-01
 137 272     1.360700000000E-01  2.014700000000E-02  5.875110000000E-01
 138 272     6.254710000000E-01  4.103260000000E-01  5.599610000000E-01
 139 272     5.861920000000E-01  1.094780000000E-01  6.133420000000E-01
 140 272     9.070570000000E-01  1.569340000000E-01  9.454950000000E-01
 141 272     5.542830000000E-01  6.264560000000E-01  9.065290000000E-01
 142 272     7.437900000000E-01  5.083480000000E-01  8.377000000000E-01
 143 272     1.011040000000E-01  3.963710000000E-01  8.731690000000E-01
 144 272     1.975780000000E-01  8.076100000000E-02  9.034550000000E-01
 145 272     1.937080000000E-01  7.305780000000E-01  9.110080000000E-01
 146 272     5.667090000000E-01  5.194090000000E-01  7.238970000000E-01
 147 272     4.778950000000E-01  8.640740000000E-01  9.749640000000E-01
 148 272     4.219820000000E-01  3.418650000000E-01  8.508730000000E-01
 149 272     9.249080000000E-01  9.035140000000E-01  8.924220000000E-01
 150 272     8.133300000000E-02  2.375970000000E-01  7.262610000000E-01
 151 272     5.168700000000E-02  9.163740000000E-01  7.506100000000E-01
 152 272     2.447110000000E-01  5.763160000000E-01  7.351370000000E-01
 153 272     3.688960000000E-01  8.977600000000E-02  7.734810000000E-01
 154 272     9.890430000000E-01  6.370060000000E-01  7.745390000000E-01
 155 272     8.044620000000E-01  2.684390000000E-01  8.047050000000E-01
 156 272     5.764200000000E-01  1.006205000000E+00  8.683950000000E-01
 157 272     3.900660000000E-01  8.933950000000E-01  6.852330000000E-01
 158 272     6.870080000000E-01  8.551470000000E-01  7.443890000000E-01
 159 272     3.888410000000E-01  3.159820000000E-01  6.725300000000E-01
 160 272     3.828000000000E-01  7.876320000000E-01  8.209880000000E-01

 *******************************************************************************

 << INFORMATION >>: FROM NOW ON, ALL COORDINATES REFER TO THE PRIMITIVE CELL

 *******************************************************************************

 LATTICE PARAMETERS  (ANGSTROMS AND DEGREES) - PRIMITIVE CELL
       A          B          C         ALPHA     BETA     GAMMA        VOLUME
   10.59622   10.58937   21.67319    90.00000  90.00000  90.00000   2431.891491

 COORDINATES OF THE EQUIVALENT ATOMS (FRACTIONAL UNITS)

 N. ATOM EQUIV AT. N.          X                  Y                  Z

   1   1   1    8 O    -1.45257000000E-01 -2.51125000000E-01 -3.94501000000E-01

   2   2   1    8 O    -4.95667000000E-01  2.86530000000E-01 -4.02087000000E-01

   3   3   1    8 O    -1.78483000000E-01 -2.16946000000E-01  4.87318000000E-01

   4   4   1    8 O     1.77082000000E-01  1.74939000000E-01 -4.64542000000E-01

   5   5   1    8 O     2.98795000000E-01 -2.41870000000E-02 -3.79716000000E-01

   6   6   1    8 O     2.05851000000E-01 -3.91238000000E-01 -3.67460000000E-01

   7   7   1    8 O     4.94906000000E-01 -2.66004000000E-01 -4.25281000000E-01

   8   8   1    8 O    -2.65223000000E-01  5.50300000000E-03 -4.18610000000E-01

   9   9   1    8 O    -3.11776000000E-01 -3.93589000000E-01 -4.71750000000E-01

  10  10   1    8 O     2.36069000000E-01 -2.64423000000E-01 -4.64019000000E-01

  11  11   1    8 O     1.69100000000E-03 -3.51830000000E-02 -4.70931000000E-01

  12  12   1    8 O     4.81234000000E-01  8.41960000000E-02 -4.65443000000E-01

  13  13   1    8 O    -3.21497000000E-01  4.42183000000E-01 -3.43850000000E-01

  14  14   1    8 O    -1.87885000000E-01  4.08438000000E-01 -4.32527000000E-01

  15  15   1    8 O     4.41574000000E-01 -4.89267000000E-01 -3.50337000000E-01

  16  16   1    8 O     2.77225000000E-01  4.29662000000E-01 -4.42990000000E-01

  17  17   1    8 O     5.06580000000E-02 -3.89545000000E-01 -4.82986000000E-01

  18  18   1    8 O    -2.45478000000E-01 -7.79890000000E-02 -6.37380000000E-02

  19  19   1    8 O    -2.13718000000E-01  1.69976000000E-01 -1.19348000000E-01

  20  20   1    8 O    -4.65282000000E-01 -1.78775000000E-01 -1.16440000000E-01

  21  21   1    8 O     5.61770000000E-02  2.28007000000E-01 -9.64750000000E-02

  22  22   1    8 O    -1.35258000000E-01 -1.28167000000E-01 -2.82009000000E-01

  23  23   1    8 O    -4.30309000000E-01 -3.03556000000E-01 -4.87300000000E-03

  24  24   1    8 O    -1.87644000000E-01 -3.97453000000E-01 -2.32415000000E-01

  25  25   1    8 O     4.52662000000E-01  4.80857000000E-01  7.96500000000E-03

  26  26   1    8 O    -4.03093000000E-01 -7.96810000000E-02 -3.38259000000E-01

  27  27   1    8 O     3.08488000000E-01  3.61313000000E-01 -6.98840000000E-02

  28  28   1    8 O     2.83640000000E-02  5.35400000000E-03 -3.40270000000E-01

  29  29   1    8 O     2.12895000000E-01 -3.10050000000E-01 -1.84235000000E-01

  30  30   1    8 O    -2.77697000000E-01  1.97849000000E-01  6.14200000000E-03

  31  31   1    8 O    -4.65343000000E-01  5.03390000000E-02 -4.24970000000E-02

  32  32   1    8 O    -6.40720000000E-02 -3.25800000000E-03  2.15300000000E-03

  33  33   1    8 O    -3.04110000000E-02 -4.73903000000E-01 -3.73289000000E-01

  34  34   1    8 O    -3.40325000000E-01  3.82621000000E-01 -2.22486000000E-01

  35  35   1    8 O    -3.67539000000E-01 -3.06870000000E-01 -3.11757000000E-01

  36  36   1    8 O    -6.15390000000E-02  4.16226000000E-01  5.15900000000E-03

  37  37   1    8 O     7.67730000000E-02 -4.39971000000E-01 -7.39550000000E-02

  38  38   1    8 O     2.42524000000E-01 -6.34550000000E-02 -2.49219000000E-01

  39  39   1    8 O     2.59962000000E-01  1.90047000000E-01 -2.84183000000E-01

  40  40   1    8 O    -2.60970000000E-02 -1.99204000000E-01 -1.80877000000E-01

  41  41   1    8 O     1.00641000000E-01  4.95129000000E-01 -2.06795000000E-01

  42  42   1    8 O     1.36788000000E-01 -4.36855000000E-01  4.17510000000E-02

  43  43   1    8 O    -2.31229000000E-01  1.73296000000E-01 -3.27275000000E-01

  44  44   1    8 O     1.13721000000E-01 -9.72860000000E-02 -9.53240000000E-02

  45  45   1    8 O    -4.40767000000E-01 -3.75528000000E-01 -1.93059000000E-01

  46  46   1    8 O     2.71407000000E-01  1.97723000000E-01 -1.61695000000E-01

  47  47   1    8 O     7.49000000000E-03  9.47990000000E-02 -2.30567000000E-01

  48  48   1    8 O    -4.92328000000E-01  1.72715000000E-01 -1.68022000000E-01

  49  49   1    8 O    -2.62430000000E-01 -3.66764000000E-01 -9.81600000000E-02

  50  50   1    8 O     2.40490000000E-02  2.77116000000E-01 -3.64441000000E-01

  51  51   1    8 O     3.98055000000E-01  4.33571000000E-01 -2.33033000000E-01

  52  52   1    8 O    -8.63150000000E-02  3.36472000000E-01 -2.63717000000E-01

  53  53   1    8 O     3.65333000000E-01 -2.76302000000E-01 -2.72621000000E-01

  54  54   1    8 O    -9.93740000000E-02  4.07779000000E-01 -1.46873000000E-01

  55  55   1    8 O     3.66874000000E-01 -3.36659000000E-01 -9.89810000000E-02

  56  56   1    8 O     2.91267000000E-01 -1.76089000000E-01 -2.09970000000E-02

  57  57   1    8 O     4.91884000000E-01 -7.49770000000E-02 -2.30382000000E-01

  58  58   1    8 O     2.07604000000E-01  4.07948000000E-01 -3.10646000000E-01

  59  59   1    8 O     7.39810000000E-02 -2.66216000000E-01 -2.92490000000E-01

  60  60   1    8 O     4.86833000000E-01  1.57762000000E-01 -3.04347000000E-01

  61  61   1    8 O    -2.81161000000E-01 -3.98800000000E-02 -1.84386000000E-01

  62  62   1    8 O    -4.37362000000E-01  4.42243000000E-01 -1.10967000000E-01

  63  63   1    8 O     1.49989000000E-01  1.19462000000E-01 -7.96800000000E-03

  64  64   1    8 O     3.55877000000E-01 -2.76100000000E-02 -1.38355000000E-01

  65  65   1   14 SI    6.15600000000E-02  6.04370000000E-02  4.74770000000E-02

  66  66   1   14 SI    3.43357000000E-01  3.66674000000E-01  7.72800000000E-03

  67  67   1   14 SI    1.96987000000E-01  4.40124000000E-01  8.10380000000E-02

  68  68   1   14 SI    4.26735000000E-01  2.07716000000E-01  7.73800000000E-02

  69  69   1   14 SI    6.99900000000E-02  3.30814000000E-01  1.54100000000E-01

  70  70   1   14 SI    3.08131000000E-01  7.93060000000E-02  1.49936000000E-01

  71  71   1   14 SI    1.86666000000E-01  1.98175000000E-01  2.18214000000E-01

  72  72   1   14 SI    4.32598000000E-01  4.32990000000E-01  2.22674000000E-01

  73  73   1   14 SI    6.60200000000E-03 -4.42675000000E-01 -1.51000000000E-04

  74  74   1   14 SI    3.18086000000E-01 -1.60497000000E-01  5.94450000000E-02

  75  75   1   14 SI    1.63420000000E-01 -6.93790000000E-02  1.12926000000E-01

  76  76   1   14 SI    4.16732000000E-01 -3.12331000000E-01  1.16273000000E-01

  77  77   1   14 SI    2.13960000000E-02 -2.13327000000E-01  1.50508000000E-01

  78  78   1   14 SI    2.95442000000E-01 -4.59064000000E-01  1.62805000000E-01

  79  79   1   14 SI    1.68671000000E-01 -3.16488000000E-01  2.13610000000E-01

  80  80   1   14 SI    4.30224000000E-01 -4.61230000000E-02  2.16686000000E-01

  81  81   1   14 SI   -4.08856000000E-01  1.09021000000E-01  2.56690000000E-02

  82  82   1   14 SI   -1.76671000000E-01  3.18315000000E-01  3.84530000000E-02

  83  83   1   14 SI   -3.10784000000E-01  4.49735000000E-01  9.60570000000E-02

  84  84   1   14 SI   -6.45650000000E-02  1.92915000000E-01  1.05913000000E-01

  85  85   1   14 SI   -4.49083000000E-01  3.17587000000E-01  1.51506000000E-01

  86  86   1   14 SI   -2.06159000000E-01  5.48130000000E-02  1.53211000000E-01

  87  87   1   14 SI   -3.28131000000E-01  1.85391000000E-01  2.14824000000E-01

  88  88   1   14 SI   -6.58990000000E-02  4.49161000000E-01  2.15206000000E-01

  89  89   1   14 SI   -4.59863000000E-01 -4.19145000000E-01  4.95930000000E-02

  90  90   1   14 SI   -1.77816000000E-01 -1.29523000000E-01  4.14100000000E-03

  91  91   1   14 SI   -3.25582000000E-01 -5.99610000000E-02  8.01000000000E-02

  92  92   1   14 SI   -9.95390000000E-02 -2.98196000000E-01  6.54600000000E-02

  93  93   1   14 SI   -4.39666000000E-01 -1.70830000000E-01  1.56223000000E-01

  94  94   1   14 SI   -1.86091000000E-01 -4.14872000000E-01  1.53259000000E-01

  95  95   1   14 SI   -3.19554000000E-01 -2.99771000000E-01  2.19001000000E-01

  96  96   1   14 SI   -7.80860000000E-02 -6.84630000000E-02  2.15692000000E-01

  97  97   1   14 SI    5.50110000000E-02  6.15430000000E-02  2.75149000000E-01

  98  98   1   14 SI    3.08017000000E-01  3.13839000000E-01  2.86334000000E-01

  99  99   1   14 SI    5.60350000000E-02 -4.33774000000E-01  2.81636000000E-01

 100 100   1   14 SI    2.99943000000E-01 -1.84468000000E-01  2.73720000000E-01

 101 101   1   14 SI   -4.48457000000E-01  7.01850000000E-02  2.84740000000E-01

 102 102   1   14 SI   -1.93112000000E-01  3.10641000000E-01  2.72723000000E-01

 103 103   1   14 SI   -4.52369000000E-01 -4.23957000000E-01  2.79774000000E-01

 104 104   1   14 SI   -2.00161000000E-01 -1.76990000000E-01  2.85160000000E-01

 105 105   1   14 SI    1.80478000000E-01  4.43805000000E-01  3.44597000000E-01

 106 106   1   14 SI    4.31972000000E-01  1.94291000000E-01  3.49990000000E-01

 107 107   1   14 SI    4.30380000000E-02  3.16315000000E-01  3.98054000000E-01

 108 108   1   14 SI    3.11315000000E-01  6.00520000000E-02  4.08267000000E-01

 109 109   1   14 SI    1.81629000000E-01  2.01937000000E-01  4.55071000000E-01

 110 110   1   14 SI    4.40790000000E-01  4.37696000000E-01  4.69955000000E-01

 111 111   1   14 SI    1.86034000000E-01 -5.70360000000E-02  3.40601000000E-01

 112 112   1   14 SI    4.19789000000E-01 -3.01556000000E-01  3.46814000000E-01

 113 113   1   14 SI    5.99480000000E-02 -1.80663000000E-01  4.04157000000E-01

 114 114   1   14 SI    3.01746000000E-01 -4.37346000000E-01  4.12365000000E-01

 115 115   1   14 SI    1.61583000000E-01 -3.17552000000E-01  4.72652000000E-01

 116 116   1   14 SI    4.14784000000E-01 -4.92280000000E-02  4.88563000000E-01

 117 117   1   14 SI   -3.23930000000E-01  4.38643000000E-01  3.31147000000E-01

 118 118   1   14 SI   -7.65830000000E-02  1.78785000000E-01  3.39714000000E-01

 119 119   1   14 SI   -4.29135000000E-01  3.23330000000E-01  4.04427000000E-01

 120 120   1   14 SI   -1.98958000000E-01  6.89330000000E-02  4.15063000000E-01

 121 121   1   14 SI   -2.75804000000E-01  2.45465000000E-01  4.71266000000E-01

 122 122   1   14 SI   -1.10878000000E-01  4.04267000000E-01  4.56597000000E-01

 123 123   1   14 SI   -3.25722000000E-01 -5.57230000000E-02  3.49951000000E-01

 124 124   1   14 SI   -6.48980000000E-02 -3.03453000000E-01  3.40634000000E-01

 125 125   1   14 SI   -4.58696000000E-01 -1.70228000000E-01  4.14918000000E-01

 126 126   1   14 SI   -1.93387000000E-01 -4.43382000000E-01  3.91292000000E-01

 127 127   1   14 SI   -3.02049000000E-01 -3.07464000000E-01  4.56475000000E-01

 128 128   1   14 SI   -8.40250000000E-02 -8.65800000000E-02  4.69631000000E-01

 129 129   1  272 HF   -1.62073000000E-01  7.08200000000E-03 -3.45224000000E-01

 130 130   1  272 HF   -1.22803000000E-01 -4.19696000000E-01 -4.53156000000E-01

 131 131   1  272 HF   -3.40025000000E-01 -2.31577000000E-01 -3.91507000000E-01

 132 132   1  272 HF    5.47040000000E-02 -2.75866000000E-01 -3.88363000000E-01

 133 133   1  272 HF    3.60345000000E-01  2.43579000000E-01 -4.63475000000E-01

 134 134   1  272 HF    1.29037000000E-01  4.27389000000E-01 -3.89910000000E-01

 135 135   1  272 HF    3.59154000000E-01 -3.91401000000E-01 -4.26643000000E-01

 136 136   1  272 HF   -1.59939000000E-01  3.43767000000E-01 -3.47869000000E-01

 137 137   1  272 HF    1.36070000000E-01  2.01470000000E-02 -4.12489000000E-01

 138 138   1  272 HF   -3.74529000000E-01  4.10326000000E-01 -4.40039000000E-01

 139 139   1  272 HF   -4.13808000000E-01  1.09478000000E-01 -3.86658000000E-01

 140 140   1  272 HF   -9.29430000000E-02  1.56934000000E-01 -5.45050000000E-02

 141 141   1  272 HF   -4.45717000000E-01 -3.73544000000E-01 -9.34710000000E-02

 142 142   1  272 HF   -2.56210000000E-01 -4.91652000000E-01 -1.62300000000E-01

 143 143   1  272 HF    1.01104000000E-01  3.96371000000E-01 -1.26831000000E-01

 144 144   1  272 HF    1.97578000000E-01  8.07610000000E-02 -9.65450000000E-02

 145 145   1  272 HF    1.93708000000E-01 -2.69422000000E-01 -8.89920000000E-02

 146 146   1  272 HF   -4.33291000000E-01 -4.80591000000E-01 -2.76103000000E-01

 147 147   1  272 HF    4.77895000000E-01 -1.35926000000E-01 -2.50360000000E-02

 148 148   1  272 HF    4.21982000000E-01  3.41865000000E-01 -1.49127000000E-01

 149 149   1  272 HF   -7.50920000000E-02 -9.64860000000E-02 -1.07578000000E-01

 150 150   1  272 HF    8.13330000000E-02  2.37597000000E-01 -2.73739000000E-01

 151 151   1  272 HF    5.16870000000E-02 -8.36260000000E-02 -2.49390000000E-01

 152 152   1  272 HF    2.44711000000E-01 -4.23684000000E-01 -2.64863000000E-01

 153 153   1  272 HF    3.68896000000E-01  8.97760000000E-02 -2.26519000000E-01

 154 154   1  272 HF   -1.09570000000E-02 -3.62994000000E-01 -2.25461000000E-01

 155 155   1  272 HF   -1.95538000000E-01  2.68439000000E-01 -1.95295000000E-01

 156 156   1  272 HF   -4.23580000000E-01  6.20500000000E-03 -1.31605000000E-01

 157 157   1  272 HF    3.90066000000E-01 -1.06605000000E-01 -3.14767000000E-01

 158 158   1  272 HF   -3.12992000000E-01 -1.44853000000E-01 -2.55611000000E-01

 159 159   1  272 HF    3.88841000000E-01  3.15982000000E-01 -3.27470000000E-01

 160 160   1  272 HF    3.82800000000E-01 -2.12368000000E-01 -1.79012000000E-01

 NUMBER OF SYMMETRY OPERATORS         :    1
 *******************************************************************************
 * GEOMETRY EDITING - INPUT COORDINATES ARE GIVEN IN ANGSTROM         
 *******************************************************************************
 INFORMATION **** NEIGHBOR **** neighbors in geometry analysis          15

 GCALCO - MAX INDICES DIRECT LATTICE VECTOR    18    19     9
 NO.OF VECTORS CREATED 6999 STARS 1062 RMAX   301.31372 BOHR

 GEOMETRY FOR WAVE FUNCTION - DIMENSIONALITY OF THE SYSTEM    3
 (NON PERIODIC DIRECTION: LATTICE PARAMETER FORMALLY SET TO 500)
 *******************************************************************************
 LATTICE PARAMETERS (ANGSTROMS AND DEGREES) - BOHR = 0.5291772083 ANGSTROM
 PRIMITIVE CELL - CENTRING CODE 1/0 VOLUME=  2431.891491 - DENSITY  5.853 g/cm^3
         A              B              C           ALPHA      BETA       GAMMA 
    10.59622100    10.58937400    21.67319300    90.000000  90.000000  90.000000
 *******************************************************************************
 ATOMS IN THE ASYMMETRIC UNIT  160 - ATOMS IN THE UNIT CELL:  160
     ATOM              X/A                 Y/B                 Z/C    
 *******************************************************************************
   1 T   8 O    -1.452570000000E-01 -2.511250000000E-01 -3.945010000000E-01
   2 T   8 O    -4.956670000000E-01  2.865300000000E-01 -4.020870000000E-01
   3 T   8 O    -1.784830000000E-01 -2.169460000000E-01  4.873180000000E-01
   4 T   8 O     1.770820000000E-01  1.749390000000E-01 -4.645420000000E-01
   5 T   8 O     2.987950000000E-01 -2.418700000000E-02 -3.797160000000E-01
   6 T   8 O     2.058510000000E-01 -3.912380000000E-01 -3.674600000000E-01
   7 T   8 O     4.949060000000E-01 -2.660040000000E-01 -4.252810000000E-01
   8 T   8 O    -2.652230000000E-01  5.503000000000E-03 -4.186100000000E-01
   9 T   8 O    -3.117760000000E-01 -3.935890000000E-01 -4.717500000000E-01
  10 T   8 O     2.360690000000E-01 -2.644230000000E-01 -4.640190000000E-01
  11 T   8 O     1.691000000000E-03 -3.518300000000E-02 -4.709310000000E-01
  12 T   8 O     4.812340000000E-01  8.419600000000E-02 -4.654430000000E-01
  13 T   8 O    -3.214970000000E-01  4.421830000000E-01 -3.438500000000E-01
  14 T   8 O    -1.878850000000E-01  4.084380000000E-01 -4.325270000000E-01
  15 T   8 O     4.415740000000E-01 -4.892670000000E-01 -3.503370000000E-01
  16 T   8 O     2.772250000000E-01  4.296620000000E-01 -4.429900000000E-01
  17 T   8 O     5.065800000000E-02 -3.895450000000E-01 -4.829860000000E-01
  18 T   8 O    -2.454780000000E-01 -7.798900000000E-02 -6.373800000000E-02
  19 T   8 O    -2.137180000000E-01  1.699760000000E-01 -1.193480000000E-01
  20 T   8 O    -4.652820000000E-01 -1.787750000000E-01 -1.164400000000E-01
  21 T   8 O     5.617700000000E-02  2.280070000000E-01 -9.647500000000E-02
  22 T   8 O    -1.352580000000E-01 -1.281670000000E-01 -2.820090000000E-01
  23 T   8 O    -4.303090000000E-01 -3.035560000000E-01 -4.873000000000E-03
  24 T   8 O    -1.876440000000E-01 -3.974530000000E-01 -2.324150000000E-01
  25 T   8 O     4.526620000000E-01  4.808570000000E-01  7.965000000000E-03
  26 T   8 O    -4.030930000000E-01 -7.968100000000E-02 -3.382590000000E-01
  27 T   8 O     3.084880000000E-01  3.613130000000E-01 -6.988400000000E-02
  28 T   8 O     2.836400000000E-02  5.354000000000E-03 -3.402700000000E-01
  29 T   8 O     2.128950000000E-01 -3.100500000000E-01 -1.842350000000E-01
  30 T   8 O    -2.776970000000E-01  1.978490000000E-01  6.142000000000E-03
  31 T   8 O    -4.653430000000E-01  5.033900000000E-02 -4.249700000000E-02
  32 T   8 O    -6.407200000000E-02 -3.258000000000E-03  2.153000000000E-03
  33 T   8 O    -3.041100000000E-02 -4.739030000000E-01 -3.732890000000E-01
  34 T   8 O    -3.403250000000E-01  3.826210000000E-01 -2.224860000000E-01
  35 T   8 O    -3.675390000000E-01 -3.068700000000E-01 -3.117570000000E-01
  36 T   8 O    -6.153900000000E-02  4.162260000000E-01  5.159000000000E-03
  37 T   8 O     7.677300000000E-02 -4.399710000000E-01 -7.395500000000E-02
  38 T   8 O     2.425240000000E-01 -6.345500000000E-02 -2.492190000000E-01
  39 T   8 O     2.599620000000E-01  1.900470000000E-01 -2.841830000000E-01
  40 T   8 O    -2.609700000000E-02 -1.992040000000E-01 -1.808770000000E-01
  41 T   8 O     1.006410000000E-01  4.951290000000E-01 -2.067950000000E-01
  42 T   8 O     1.367880000000E-01 -4.368550000000E-01  4.175100000000E-02
  43 T   8 O    -2.312290000000E-01  1.732960000000E-01 -3.272750000000E-01
  44 T   8 O     1.137210000000E-01 -9.728600000000E-02 -9.532400000000E-02
  45 T   8 O    -4.407670000000E-01 -3.755280000000E-01 -1.930590000000E-01
  46 T   8 O     2.714070000000E-01  1.977230000000E-01 -1.616950000000E-01
  47 T   8 O     7.490000000000E-03  9.479900000000E-02 -2.305670000000E-01
  48 T   8 O    -4.923280000000E-01  1.727150000000E-01 -1.680220000000E-01
  49 T   8 O    -2.624300000000E-01 -3.667640000000E-01 -9.816000000000E-02
  50 T   8 O     2.404900000000E-02  2.771160000000E-01 -3.644410000000E-01
  51 T   8 O     3.980550000000E-01  4.335710000000E-01 -2.330330000000E-01
  52 T   8 O    -8.631500000000E-02  3.364720000000E-01 -2.637170000000E-01
  53 T   8 O     3.653330000000E-01 -2.763020000000E-01 -2.726210000000E-01
  54 T   8 O    -9.937400000000E-02  4.077790000000E-01 -1.468730000000E-01
  55 T   8 O     3.668740000000E-01 -3.366590000000E-01 -9.898100000000E-02
  56 T   8 O     2.912670000000E-01 -1.760890000000E-01 -2.099700000000E-02
  57 T   8 O     4.918840000000E-01 -7.497700000000E-02 -2.303820000000E-01
  58 T   8 O     2.076040000000E-01  4.079480000000E-01 -3.106460000000E-01
  59 T   8 O     7.398100000000E-02 -2.662160000000E-01 -2.924900000000E-01
  60 T   8 O     4.868330000000E-01  1.577620000000E-01 -3.043470000000E-01
  61 T   8 O    -2.811610000000E-01 -3.988000000000E-02 -1.843860000000E-01
  62 T   8 O    -4.373620000000E-01  4.422430000000E-01 -1.109670000000E-01
  63 T   8 O     1.499890000000E-01  1.194620000000E-01 -7.968000000000E-03
  64 T   8 O     3.558770000000E-01 -2.761000000000E-02 -1.383550000000E-01
  65 T  14 SI    6.156000000000E-02  6.043700000000E-02  4.747700000000E-02
  66 T  14 SI    3.433570000000E-01  3.666740000000E-01  7.728000000000E-03
  67 T  14 SI    1.969870000000E-01  4.401240000000E-01  8.103800000000E-02
  68 T  14 SI    4.267350000000E-01  2.077160000000E-01  7.738000000000E-02
  69 T  14 SI    6.999000000000E-02  3.308140000000E-01  1.541000000000E-01
  70 T  14 SI    3.081310000000E-01  7.930600000000E-02  1.499360000000E-01
  71 T  14 SI    1.866660000000E-01  1.981750000000E-01  2.182140000000E-01
  72 T  14 SI    4.325980000000E-01  4.329900000000E-01  2.226740000000E-01
  73 T  14 SI    6.602000000000E-03 -4.426750000000E-01 -1.510000000000E-04
  74 T  14 SI    3.180860000000E-01 -1.604970000000E-01  5.944500000000E-02
  75 T  14 SI    1.634200000000E-01 -6.937900000000E-02  1.129260000000E-01
  76 T  14 SI    4.167320000000E-01 -3.123310000000E-01  1.162730000000E-01
  77 T  14 SI    2.139600000000E-02 -2.133270000000E-01  1.505080000000E-01
  78 T  14 SI    2.954420000000E-01 -4.590640000000E-01  1.628050000000E-01
  79 T  14 SI    1.686710000000E-01 -3.164880000000E-01  2.136100000000E-01
  80 T  14 SI    4.302240000000E-01 -4.612300000000E-02  2.166860000000E-01
  81 T  14 SI   -4.088560000000E-01  1.090210000000E-01  2.566900000000E-02
  82 T  14 SI   -1.766710000000E-01  3.183150000000E-01  3.845300000000E-02
  83 T  14 SI   -3.107840000000E-01  4.497350000000E-01  9.605700000000E-02
  84 T  14 SI   -6.456500000000E-02  1.929150000000E-01  1.059130000000E-01
  85 T  14 SI   -4.490830000000E-01  3.175870000000E-01  1.515060000000E-01
  86 T  14 SI   -2.061590000000E-01  5.481300000000E-02  1.532110000000E-01
  87 T  14 SI   -3.281310000000E-01  1.853910000000E-01  2.148240000000E-01
  88 T  14 SI   -6.589900000000E-02  4.491610000000E-01  2.152060000000E-01
  89 T  14 SI   -4.598630000000E-01 -4.191450000000E-01  4.959300000000E-02
  90 T  14 SI   -1.778160000000E-01 -1.295230000000E-01  4.141000000000E-03
  91 T  14 SI   -3.255820000000E-01 -5.996100000000E-02  8.010000000000E-02
  92 T  14 SI   -9.953900000000E-02 -2.981960000000E-01  6.546000000000E-02
  93 T  14 SI   -4.396660000000E-01 -1.708300000000E-01  1.562230000000E-01
  94 T  14 SI   -1.860910000000E-01 -4.148720000000E-01  1.532590000000E-01
  95 T  14 SI   -3.195540000000E-01 -2.997710000000E-01  2.190010000000E-01
  96 T  14 SI   -7.808600000000E-02 -6.846300000000E-02  2.156920000000E-01
  97 T  14 SI    5.501100000000E-02  6.154300000000E-02  2.751490000000E-01
  98 T  14 SI    3.080170000000E-01  3.138390000000E-01  2.863340000000E-01
  99 T  14 SI    5.603500000000E-02 -4.337740000000E-01  2.816360000000E-01
 100 T  14 SI    2.999430000000E-01 -1.844680000000E-01  2.737200000000E-01
 101 T  14 SI   -4.484570000000E-01  7.018500000000E-02  2.847400000000E-01
 102 T  14 SI   -1.931120000000E-01  3.106410000000E-01  2.727230000000E-01
 103 T  14 SI   -4.523690000000E-01 -4.239570000000E-01  2.797740000000E-01
 104 T  14 SI   -2.001610000000E-01 -1.769900000000E-01  2.851600000000E-01
 105 T  14 SI    1.804780000000E-01  4.438050000000E-01  3.445970000000E-01
 106 T  14 SI    4.319720000000E-01  1.942910000000E-01  3.499900000000E-01
 107 T  14 SI    4.303800000000E-02  3.163150000000E-01  3.980540000000E-01
 108 T  14 SI    3.113150000000E-01  6.005200000000E-02  4.082670000000E-01
 109 T  14 SI    1.816290000000E-01  2.019370000000E-01  4.550710000000E-01
 110 T  14 SI    4.407900000000E-01  4.376960000000E-01  4.699550000000E-01
 111 T  14 SI    1.860340000000E-01 -5.703600000000E-02  3.406010000000E-01
 112 T  14 SI    4.197890000000E-01 -3.015560000000E-01  3.468140000000E-01
 113 T  14 SI    5.994800000000E-02 -1.806630000000E-01  4.041570000000E-01
 114 T  14 SI    3.017460000000E-01 -4.373460000000E-01  4.123650000000E-01
 115 T  14 SI    1.615830000000E-01 -3.175520000000E-01  4.726520000000E-01
 116 T  14 SI    4.147840000000E-01 -4.922800000000E-02  4.885630000000E-01
 117 T  14 SI   -3.239300000000E-01  4.386430000000E-01  3.311470000000E-01
 118 T  14 SI   -7.658300000000E-02  1.787850000000E-01  3.397140000000E-01
 119 T  14 SI   -4.291350000000E-01  3.233300000000E-01  4.044270000000E-01
 120 T  14 SI   -1.989580000000E-01  6.893300000000E-02  4.150630000000E-01
 121 T  14 SI   -2.758040000000E-01  2.454650000000E-01  4.712660000000E-01
 122 T  14 SI   -1.108780000000E-01  4.042670000000E-01  4.565970000000E-01
 123 T  14 SI   -3.257220000000E-01 -5.572300000000E-02  3.499510000000E-01
 124 T  14 SI   -6.489800000000E-02 -3.034530000000E-01  3.406340000000E-01
 125 T  14 SI   -4.586960000000E-01 -1.702280000000E-01  4.149180000000E-01
 126 T  14 SI   -1.933870000000E-01 -4.433820000000E-01  3.912920000000E-01
 127 T  14 SI   -3.020490000000E-01 -3.074640000000E-01  4.564750000000E-01
 128 T  14 SI   -8.402500000000E-02 -8.658000000000E-02  4.696310000000E-01
 129 T 272 HF   -1.620730000000E-01  7.082000000000E-03 -3.452240000000E-01
 130 T 272 HF   -1.228030000000E-01 -4.196960000000E-01 -4.531560000000E-01
 131 T 272 HF   -3.400250000000E-01 -2.315770000000E-01 -3.915070000000E-01
 132 T 272 HF    5.470400000000E-02 -2.758660000000E-01 -3.883630000000E-01
 133 T 272 HF    3.603450000000E-01  2.435790000000E-01 -4.634750000000E-01
 134 T 272 HF    1.290370000000E-01  4.273890000000E-01 -3.899100000000E-01
 135 T 272 HF    3.591540000000E-01 -3.914010000000E-01 -4.266430000000E-01
 136 T 272 HF   -1.599390000000E-01  3.437670000000E-01 -3.478690000000E-01
 137 T 272 HF    1.360700000000E-01  2.014700000000E-02 -4.124890000000E-01
 138 T 272 HF   -3.745290000000E-01  4.103260000000E-01 -4.400390000000E-01
 139 T 272 HF   -4.138080000000E-01  1.094780000000E-01 -3.866580000000E-01
 140 T 272 HF   -9.294300000000E-02  1.569340000000E-01 -5.450500000000E-02
 141 T 272 HF   -4.457170000000E-01 -3.735440000000E-01 -9.347100000000E-02
 142 T 272 HF   -2.562100000000E-01 -4.916520000000E-01 -1.623000000000E-01
 143 T 272 HF    1.011040000000E-01  3.963710000000E-01 -1.268310000000E-01
 144 T 272 HF    1.975780000000E-01  8.076100000000E-02 -9.654500000000E-02
 145 T 272 HF    1.937080000000E-01 -2.694220000000E-01 -8.899200000000E-02
 146 T 272 HF   -4.332910000000E-01 -4.805910000000E-01 -2.761030000000E-01
 147 T 272 HF    4.778950000000E-01 -1.359260000000E-01 -2.503600000000E-02
 148 T 272 HF    4.219820000000E-01  3.418650000000E-01 -1.491270000000E-01
 149 T 272 HF   -7.509200000000E-02 -9.648600000000E-02 -1.075780000000E-01
 150 T 272 HF    8.133300000000E-02  2.375970000000E-01 -2.737390000000E-01
 151 T 272 HF    5.168700000000E-02 -8.362600000000E-02 -2.493900000000E-01
 152 T 272 HF    2.447110000000E-01 -4.236840000000E-01 -2.648630000000E-01
 153 T 272 HF    3.688960000000E-01  8.977600000000E-02 -2.265190000000E-01
 154 T 272 HF   -1.095700000000E-02 -3.629940000000E-01 -2.254610000000E-01
 155 T 272 HF   -1.955380000000E-01  2.684390000000E-01 -1.952950000000E-01
 156 T 272 HF   -4.235800000000E-01  6.205000000000E-03 -1.316050000000E-01
 157 T 272 HF    3.900660000000E-01 -1.066050000000E-01 -3.147670000000E-01
 158 T 272 HF   -3.129920000000E-01 -1.448530000000E-01 -2.556110000000E-01
 159 T 272 HF    3.888410000000E-01  3.159820000000E-01 -3.274700000000E-01
 160 T 272 HF    3.828000000000E-01 -2.123680000000E-01 -1.790120000000E-01

 T = ATOM BELONGING TO THE ASYMMETRIC UNIT

 ****   1 SYMMOPS - TRANSLATORS IN FRACTIONAL UNITS
  V INV                   ROTATION MATRICES                       TRANSLATOR
  1  1  1.00  0.00  0.00  0.00  1.00  0.00  0.00  0.00  1.00    0.00  0.00  0.00

 DIRECT LATTICE VECTORS CARTESIAN COMPONENTS (ANGSTROM)
          X                    Y                    Z
   0.105962210000E+02   0.648831406535E-15   0.000000000000E+00
   0.000000000000E+00   0.105893740000E+02   0.000000000000E+00
   0.132710032174E-14   0.132710032174E-14   0.216731930000E+02


 CARTESIAN COORDINATES - PRIMITIVE CELL
 *******************************************************************************
 *      ATOM          X(ANGSTROM)         Y(ANGSTROM)         Z(ANGSTROM)
 *******************************************************************************
   1     8 O    -1.539175273797E+00 -2.659256545750E+00 -8.550096311693E+00
   2     8 O    -5.252197074407E+00  3.034173332220E+00 -8.714509153791E+00
   3     8 O    -1.891245312743E+00 -2.297322331804E+00  1.056173706637E+01
   4     8 O     1.876400007122E+00  1.852494498186E+00 -1.006810842261E+01
   5     8 O     3.166097853695E+00 -2.561251889380E-01 -8.229658153188E+00
   6     8 O     2.181242689071E+00 -4.142965505012E+00 -7.964031499780E+00
   7     8 O     5.244133350226E+00 -2.816815841496E+00 -9.217197192233E+00
   8     8 O    -2.810361522283E+00  5.827332512200E-02 -9.072615321730E+00
   9     8 O    -3.303647398496E+00 -4.167861123286E+00 -1.022432879775E+01
  10     8 O     2.501439295249E+00 -2.800074041202E+00 -1.005677334267E+01
  11     8 O     1.791820971100E-02 -3.725659454420E-01 -1.020657845268E+01
  12     8 O     5.099261816714E+00  8.915829333040E-01 -1.008763596950E+01
  13     8 O    -3.406653262837E+00  4.682441163442E+00 -7.452327413050E+00
  14     8 O    -1.990870982585E+00  4.325102737812E+00 -9.374241148711E+00
  15     8 O     4.679015691854E+00 -5.181031248858E+00 -7.592921416041E+00
  16     8 O     2.937537366725E+00  4.549851611588E+00 -9.601007767070E+00
  17     8 O     5.367833634180E-01 -4.125037694830E+00 -1.046784879430E+01
  18     8 O    -2.601139138638E+00 -8.258546888860E-01 -1.381405975434E+00
  19     8 O    -2.264603159678E+00  1.799939435024E+00 -2.586652238164E+00
  20     8 O    -4.930230899322E+00 -1.893115336850E+00 -2.523626592920E+00
  21     8 O     5.952639071170E-01  2.414451397618E+00 -2.090921294675E+00
  22     8 O    -1.433223660018E+00 -1.357208297458E+00 -6.112035484737E+00
  23     8 O    -4.559649262289E+00 -3.214468013944E+00 -1.056134694890E-01
  24     8 O    -1.988317293324E+00 -4.208778464422E+00 -5.037175151095E+00
  25     8 O     4.796506590302E+00  5.091974613518E+00  1.726269822450E-01
  26     8 O    -4.271262511553E+00 -8.437719096940E-01 -7.331152590987E+00
  27     8 O     3.268807023848E+00  3.826078488062E+00 -1.514609419612E+00
  28     8 O     3.005512124440E-01  5.669550839600E-02 -7.374737382110E+00
  29     8 O     2.255882469795E+00 -3.283235408700E+00 -3.992960712355E+00
  30     8 O    -2.942538783037E+00  2.095097056526E+00  1.331167514060E-01
  31     8 O    -4.930877268803E+00  5.330584977860E-01 -9.210456829210E-01
  32     8 O    -6.789210719120E-01 -3.450018049200E-02  4.666238452900E-02
  33     8 O    -3.222416768310E-01 -5.018336106722E+00 -8.090364541777E+00
  34     8 O    -3.606158911825E+00  4.051716869254E+00 -4.821982017798E+00
  35     8 O    -3.894524470119E+00 -3.249561199380E+00 -6.756769630101E+00
  36     8 O    -6.520808441190E-01  4.407572782524E+00  1.118120026870E-01
  37     8 O     8.135036748330E-01 -4.659017468154E+00 -1.602840988315E+00
  38     8 O     2.569837901804E+00 -6.719487271700E-01 -5.401371486267E+00
  39     8 O     2.754614803602E+00  2.012478760578E+00 -6.159153006319E+00
  40     8 O    -2.765295794370E-01 -2.109445658296E+00 -3.920182130261E+00
  41     8 O     1.066414277661E+00  5.243106159246E+00 -4.481907946435E+00
  42     8 O     1.449435878148E+00 -4.626020978770E+00  9.048774809430E-01
  43     8 O    -2.450153585609E+00  1.835096156704E+00 -7.093094239075E+00
  44     8 O     1.205012848341E+00 -1.030197838964E+00 -2.065975449532E+00
  45     8 O    -4.670464541507E+00 -3.976606439472E+00 -4.184204967387E+00
  46     8 O     2.875888552947E+00  2.093762795402E+00 -3.504446942135E+00
  47     8 O     7.936569529000E-02  1.003862065826E+00 -4.997123090431E+00
  48     8 O    -5.216816292488E+00  1.828943730410E+00 -3.641573234246E+00
  49     8 O    -2.780766277030E+00 -3.883801165736E+00 -2.127440624880E+00
  50     8 O     2.548285188290E-01  2.934484965384E+00 -7.898600130113E+00
  51     8 O     4.217878750155E+00  4.591245474554E+00 -5.050569184369E+00
  52     8 O    -9.146128156150E-01  3.563027848528E+00 -5.715589438381E+00
  53     8 O     3.871149206593E+00 -2.925865214948E+00 -5.908567548853E+00
  54     8 O    -1.052988865654E+00  4.318124340346E+00 -3.183206875489E+00
  55     8 O     3.887477983154E+00 -3.565008061466E+00 -2.145234316333E+00
  56     8 O     3.086329502007E+00 -1.864672278286E+00 -4.550720334210E-01
  57     8 O     5.212111570364E+00 -7.939594943980E-01 -4.993113549726E+00
  58     8 O     2.199817864484E+00  4.319913944552E+00 -6.732690712678E+00
  59     8 O     7.839190258010E-01 -2.819060788784E+00 -6.339192220570E+00
  60     8 O     5.158590058093E+00  1.670600820988E+00 -6.596171269971E+00
  61     8 O    -2.979244092581E+00 -4.223042351200E-01 -3.996233364498E+00
  62     8 O    -4.634384409002E+00  4.683076525882E+00 -2.405009207631E+00
  63     8 O     1.589316591569E+00  1.265027796788E+00 -1.726920018240E-01
  64     8 O     3.770951340817E+00 -2.923726161400E-01 -2.998594617515E+00
  65    14 SI    6.523033647600E-01  6.399899964380E-01  1.028978184061E+00
  66    14 SI    3.638286653897E+00  3.882848122076E+00  1.674904355040E-01
  67    14 SI    2.087317786127E+00  4.660637642376E+00  1.756352214334E+00
  68    14 SI    4.521778368435E+00  2.199582409784E+00  1.677071674340E+00
  69    14 SI    7.416295077900E-01  3.503113170436E+00  3.339839041300E+00
  70    14 SI    3.265024172951E+00  8.398008944440E-01  3.249591865648E+00
  71    14 SI    1.977954189186E+00  2.098549192450E+00  4.729394137302E+00
  72    14 SI    4.583904012158E+00  4.585093048260E+00  4.826056578082E+00
  73    14 SI    6.995625104200E-02 -4.687651135450E+00 -3.272652143000E-03
  74    14 SI    3.370509553006E+00 -1.699562758878E+00  1.288362957885E+00
  75    14 SI    1.731634435820E+00 -7.346801787460E-01  2.447466992718E+00
  76    14 SI    4.415784369772E+00 -3.307389770794E+00  2.520007169689E+00
  77    14 SI    2.267167445160E-01 -2.258999387298E+00  3.261988932044E+00
  78    14 SI    3.130568724682E+00 -4.861200385936E+00  3.528504186365E+00
  79    14 SI    1.787275192291E+00 -3.351409798512E+00  4.629610756730E+00
  80    14 SI    4.558748583504E+00 -4.884136970020E-01  4.696277498398E+00
  81    14 SI   -4.332328533176E+00  1.154464142854E+00  5.563291911170E-01
  82    14 SI   -1.872044960291E+00  3.370756584810E+00  8.333992904290E-01
  83    14 SI   -3.293135947264E+00  4.762412115890E+00  2.081861900001E+00
  84    14 SI   -6.841450088650E-01  2.042849085210E+00  2.295472890209E+00
  85    14 SI   -4.758582715343E+00  3.363047520538E+00  3.283618778658E+00
  86    14 SI   -2.184506325139E+00  5.804353570620E-01  3.320571572723E+00
  87    14 SI   -3.476948592951E+00  1.963174635234E+00  4.655922013032E+00
  88    14 SI   -6.982803676790E-01  4.756333815214E+00  4.664201172758E+00
  89    14 SI   -4.872809977723E+00 -4.438483165230E+00  1.074838660449E+00
  90    14 SI   -1.884177633336E+00 -1.371567488602E+00  8.974869221300E-02
  91    14 SI   -3.449938825622E+00 -6.349494544140E-01  1.736022759300E+00
  92    14 SI   -1.054737242119E+00 -3.157708969304E+00  1.418727213780E+00
  93    14 SI   -4.658798102186E+00 -1.808982760420E+00  3.385851230039E+00
  94    14 SI   -1.971861362111E+00 -4.393234770128E+00  3.321611885987E+00
  95    14 SI   -3.386064805434E+00 -3.174387233354E+00  4.746450940193E+00
  96    14 SI   -8.274165130060E-01 -7.249803121620E-01  4.674734344556E+00
  97    14 SI    5.829087134310E-01  6.517018440820E-01  5.963357380757E+00
  98    14 SI    3.263816203757E+00  3.323358546786E+00  6.205772044462E+00
  99    14 SI    5.937592437350E-01 -4.593395117476E+00  6.103951383748E+00
 100    14 SI    3.178262315403E+00 -1.953400643032E+00  5.932386387960E+00
 101    14 SI   -4.751949480997E+00  7.432152141900E-01  6.171224974820E+00
 102    14 SI   -2.046257429752E+00  3.289493728734E+00  5.910778214539E+00
 103    14 SI   -4.793401897549E+00 -4.489439232918E+00  6.063595898382E+00
 104    14 SI   -2.120950191581E+00 -1.874213304260E+00  6.180327715880E+00
 105    14 SI    1.912384773638E+00  4.699617128070E+00  7.468517288221E+00
 106    14 SI    4.577270777812E+00  2.057420063834E+00  7.585400818070E+00
 107    14 SI    4.560401593980E-01  3.349577836810E+00  8.627101166422E+00
 108    14 SI    3.298762540615E+00  6.359130874480E-01  8.848449486531E+00
 109    14 SI    1.924581024009E+00  2.138386417438E+00  9.862841611703E+00
 110    14 SI    4.670708254590E+00  4.634926642304E+00  1.018542541631E+01
 111    14 SI    1.971257377514E+00 -6.039755354640E-01  7.381911208993E+00
 112    14 SI    4.448177017369E+00 -3.193289265944E+00  7.516566757102E+00
 113    14 SI    6.352222565080E-01 -1.913108074962E+00  8.759372663301E+00
 114    14 SI    3.197367301866E+00 -4.631220361404E+00  8.937266231445E+00
 115    14 SI    1.712169177843E+00 -3.362676892448E+00  1.024387801784E+01
 116    14 SI    4.395142931264E+00 -5.212937032720E-01  1.058872019166E+01
 117    14 SI   -3.432433868530E+00  4.644954779482E+00  7.177012842371E+00
 118    14 SI   -8.114903928430E-01  1.893221230590E+00  7.362687086802E+00
 119    14 SI   -4.547209298835E+00  3.423862295420E+00  8.765224425411E+00
 120    14 SI   -2.108202937718E+00  7.299573179420E-01  8.995740506159E+00
 121    14 SI   -2.922480136684E+00  2.599320688910E+00  1.021383897234E+01
 122    14 SI   -1.174887792038E+00  4.280934458858E+00  9.895914904221E+00
 123    14 SI   -3.451422296562E+00 -5.900716874020E-01  7.584555563543E+00
 124    14 SI   -6.876735504580E-01 -3.213377308422E+00  7.382626424362E+00
 125    14 SI   -4.860444187816E+00 -1.802607957272E+00  8.992597893174E+00
 126    14 SI   -2.049171390527E+00 -4.695137822868E+00  8.480547035356E+00
 127    14 SI   -3.200577956829E+00 -3.255851287536E+00  9.893270774675E+00
 128    14 SI   -8.903474695250E-01 -9.168280009200E-01  1.017840330178E+01
 129   272 HF   -1.717361326133E+00  7.499394666800E-02 -7.482106380232E+00
 130   272 HF   -1.301247727463E+00 -4.444317910304E+00 -9.821337447108E+00
 131   272 HF   -3.602980045525E+00 -2.452255462798E+00 -8.485206771851E+00
 132   272 HF    5.796556735840E-01 -2.921248247884E+00 -8.417066253059E+00
 133   272 HF    3.818295256245E+00  2.579349129546E+00 -1.004498312567E+01
 134   272 HF    1.367304569177E+00  4.525781964486E+00 -8.450594682630E+00
 135   272 HF    3.805675157034E+00 -4.144691572974E+00 -9.246716081099E+00
 136   272 HF   -1.694748990519E+00  3.640277331858E+00 -7.539431975717E+00
 137   272 HF    1.441827791470E+00  2.133441179780E-01 -8.939953707377E+00
 138   272 HF   -3.968592054909E+00  4.345095475924E+00 -9.537050174527E+00
 139   272 HF   -4.384801019568E+00  1.159303486772E+00 -8.380113458994E+00
 140   272 HF   -9.848445684030E-01  1.661832819316E+00 -1.181297384465E+00
 141   272 HF   -4.722915835457E+00 -3.955597121456E+00 -2.025815022903E+00
 142   272 HF   -2.714857782410E+00 -5.206286905848E+00 -3.517559223900E+00
 143   272 HF    1.071320327984E+00  4.197320761754E+00 -2.748832741383E+00
 144   272 HF    2.093580152738E+00  8.552084336140E-01 -2.092438418185E+00
 145   272 HF    2.052572777468E+00 -2.853010321828E+00 -1.928740791456E+00
 146   272 HF   -4.591247193311E+00 -5.089157840034E+00 -5.984033606879E+00
 147   272 HF    5.063881034795E+00 -1.439371250324E+00 -5.426100599480E-01
 148   272 HF    4.471414530022E+00  3.620136342510E+00 -3.232058252511E+00
 149   272 HF   -7.956914273320E-01 -1.021726339764E+00 -2.331558756554E+00
 150   272 HF    8.618224425930E-01  2.516003494278E+00 -5.932798178627E+00
 151   272 HF    5.476868748270E-01 -8.855469901240E-01 -5.405077602270E+00
 152   272 HF    2.593011837131E+00 -4.486548333816E+00 -5.740426917559E+00
 153   272 HF    3.908903542016E+00  9.506716402240E-01 -4.909390005167E+00
 154   272 HF   -1.161027934970E-01 -3.843879225756E+00 -4.886459766973E+00
 155   272 HF   -2.071963861898E+00  2.842600967186E+00 -4.232666226935E+00
 156   272 HF   -4.488347291180E+00  6.570706567000E-02 -2.852300564765E+00
 157   272 HF    4.133225540586E+00 -1.128880215270E+00 -6.822005941031E+00
 158   272 HF   -3.316532403232E+00 -1.533902592022E+00 -5.539906535923E+00
 159   272 HF    4.120245169861E+00  3.346051575268E+00 -7.097320511710E+00
 160   272 HF    4.056233398800E+00 -2.248844177632E+00 -3.879761625316E+00

 *******************************************************************************
 *** PSEUDOPOTENTIAL INFORMATION ***
 *******************************************************************************

 ATOMIC NUMBER  72, NUCLEAR CHARGE 12.000, HAY-WADT SMALL CORE  PSEUDOPOTENTIAL
   TYPE       EXPONENT      COEFF.    N      EXPONENT      COEFF.    N
  W0 TMS   685.5502931  -60.0000000  -1   151.8080485 -688.4980664   0
            38.0522099 -199.7748820   0    10.2057544  -77.2365121   0
             3.4376287  -14.6532596   0     0.8997539   -0.6762204   0
  P0 TMS   380.1096725    3.0000000  -2   724.6234505   31.3395532  -1
           281.4764603 1251.6866138   0    89.3590988  700.8900106   0
            22.9765773  266.0445845   0     3.6700035  465.0196155   0
             3.4703000 -369.5404568   0
  P1 TMS   228.3135771    2.0000000  -2    64.0878447   60.2776972  -1
            20.5139289  192.2174983   0     3.1643736  339.6460089   0
             2.9880924 -266.1066543   0
  P2 TMS   143.7102399    3.0000000  -2    63.1859170   54.6576760  -1
            32.0227449  217.5811427   0    10.7674922  125.1363084   0
             3.1003260   37.6203195   0
  P3 TMS    85.0395853    4.0000000  -2    41.8198820   49.6358393  -1
            19.6524967  178.4657222   0     6.0777120   82.0077173   0
             1.4776693    6.3063943   0

 *******************************************************************************
 LOCAL ATOMIC FUNCTIONS BASIS SET
 *******************************************************************************
   ATOM  X(AU)  Y(AU)  Z(AU)    NO. TYPE  EXPONENT  S COEF   P COEF   D/F/G COEF
 *******************************************************************************
   1 O  -2.909 -5.025-16.157
                                  1 S  
                                         2.703E+04 2.173E-04 0.000E+00 0.000E+00
                                         4.052E+03 1.684E-03 0.000E+00 0.000E+00
                                         9.223E+02 8.740E-03 0.000E+00 0.000E+00
                                         2.612E+02 3.524E-02 0.000E+00 0.000E+00
                                         8.535E+01 1.115E-01 0.000E+00 0.000E+00
                                         3.104E+01 2.559E-01 0.000E+00 0.000E+00
                                  2 S  
                                         1.226E+01 3.977E-01 0.000E+00 0.000E+00
                                         4.999E+00 2.463E-01 0.000E+00 0.000E+00
                                  3 S  
                                         1.099E+00 1.000E+00 0.000E+00 0.000E+00
                                  4 S  
                                         3.566E-01 1.000E+00 0.000E+00 0.000E+00
                             5-   7 P  
                                         6.327E+01 0.000E+00 6.069E-03 0.000E+00
                                         1.463E+01 0.000E+00 4.191E-02 0.000E+00
                                         4.450E+00 0.000E+00 1.615E-01 0.000E+00
                                         1.528E+00 0.000E+00 3.571E-01 0.000E+00
                             8-  10 P  
                                         5.490E-01 0.000E+00 1.000E+00 0.000E+00
                            11-  13 P  
                                         1.859E-01 0.000E+00 1.000E+00 0.000E+00
                            14-  18 D  
                                         2.535E-01 0.000E+00 0.000E+00 1.000E+00
   2 O  -9.925  5.734-16.468
   3 O  -3.574 -4.341 19.959
   4 O   3.546  3.501-19.026
   5 O   5.983 -0.484-15.552
   6 O   4.122 -7.829-15.050
   7 O   9.910 -5.323-17.418
   8 O  -5.311  0.110-17.145
   9 O  -6.243 -7.876-19.321
  10 O   4.727 -5.291-19.005
  11 O   0.034 -0.704-19.288
  12 O   9.636  1.685-19.063
  13 O  -6.438  8.849-14.083
  14 O  -3.762  8.173-17.715
  15 O   8.842 -9.791-14.349
  16 O   5.551  8.598-18.143
  17 O   1.014 -7.795-19.781
  18 O  -4.915 -1.561 -2.610
  19 O  -4.279  3.401 -4.888
  20 O  -9.317 -3.577 -4.769
  21 O   1.125  4.563 -3.951
  22 O  -2.708 -2.565-11.550
  23 O  -8.616 -6.074 -0.200
  24 O  -3.757 -7.953 -9.519
  25 O   9.064  9.622  0.326
  26 O  -8.072 -1.594-13.854
  27 O   6.177  7.230 -2.862
  28 O   0.568  0.107-13.936
  29 O   4.263 -6.204 -7.546
  30 O  -5.561  3.959  0.252
  31 O  -9.318  1.007 -1.741
  32 O  -1.283 -0.065  0.088
  33 O  -0.609 -9.483-15.289
  34 O  -6.815  7.657 -9.112
  35 O  -7.360 -6.141-12.768
  36 O  -1.232  8.329  0.211
  37 O   1.537 -8.804 -3.029
  38 O   4.856 -1.270-10.207
  39 O   5.205  3.803-11.639
  40 O  -0.523 -3.986 -7.408
  41 O   2.015  9.908 -8.470
  42 O   2.739 -8.742  1.710
  43 O  -4.630  3.468-13.404
  44 O   2.277 -1.947 -3.904
  45 O  -8.826 -7.515 -7.907
  46 O   5.435  3.957 -6.622
  47 O   0.150  1.897 -9.443
  48 O  -9.858  3.456 -6.882
  49 O  -5.255 -7.339 -4.020
  50 O   0.482  5.545-14.926
  51 O   7.971  8.676 -9.544
  52 O  -1.728  6.733-10.801
  53 O   7.315 -5.529-11.166
  54 O  -1.990  8.160 -6.015
  55 O   7.346 -6.737 -4.054
  56 O   5.832 -3.524 -0.860
  57 O   9.849 -1.500 -9.436
  58 O   4.157  8.163-12.723
  59 O   1.481 -5.327-11.979
  60 O   9.748  3.157-12.465
  61 O  -5.630 -0.798 -7.552
  62 O  -8.758  8.850 -4.545
  63 O   3.003  2.391 -0.326
  64 O   7.126 -0.553 -5.667
  65 SI  1.233  1.209  1.944
                               1153 S  
                                         8.765E+04 2.370E-04 0.000E+00 0.000E+00
                                         1.285E+04 1.920E-03 0.000E+00 0.000E+00
                                         2.786E+03 1.090E-02 0.000E+00 0.000E+00
                                         7.280E+02 4.960E-02 0.000E+00 0.000E+00
                                         2.195E+02 1.668E-01 0.000E+00 0.000E+00
                                         7.590E+01 3.630E-01 0.000E+00 0.000E+00
                                         2.946E+01 4.051E-01 0.000E+00 0.000E+00
                                         1.199E+01 1.504E-01 0.000E+00 0.000E+00
                          1154-1157 SP 
                                         1.660E+02-8.840E-03 9.090E-03 0.000E+00
                                         3.937E+01-8.590E-02 6.010E-02 0.000E+00
                                         1.271E+01-7.120E-02 1.952E-01 0.000E+00
                                         4.718E+00 4.147E-01 3.384E-01 0.000E+00
                                         1.848E+00 6.168E-01 3.006E-01 0.000E+00
                                         7.365E-01 1.154E-01 6.480E-02 0.000E+00
                          1158-1161 SP 
                                         4.175E+00-1.990E-02-8.700E-03 0.000E+00
                                         1.447E+00-1.864E-01-4.380E-03 0.000E+00
                                         5.023E-01 9.670E-02 2.207E-01 0.000E+00
                          1162-1165 SP 
                                         3.220E-01 1.000E+00 1.000E+00 0.000E+00
                          1166-1169 SP 
                                         1.300E-01 1.000E+00 1.000E+00 0.000E+00
                          1170-1174 D  
                                         6.000E-01 0.000E+00 0.000E+00 1.000E+00
  66 SI  6.875  7.338  0.317
  67 SI  3.944  8.807  3.319
  68 SI  8.545  4.157  3.169
  69 SI  1.401  6.620  6.311
  70 SI  6.170  1.587  6.141
  71 SI  3.738  3.966  8.937
  72 SI  8.662  8.665  9.120
  73 SI  0.132 -8.858 -0.006
  74 SI  6.369 -3.212  2.435
  75 SI  3.272 -1.388  4.625
  76 SI  8.345 -6.250  4.762
  77 SI  0.428 -4.269  6.164
  78 SI  5.916 -9.186  6.668
  79 SI  3.377 -6.333  8.749
  80 SI  8.615 -0.923  8.875
  81 SI -8.187  2.182  1.051
  82 SI -3.538  6.370  1.575
  83 SI -6.223  9.000  3.934
  84 SI -1.293  3.860  4.338
  85 SI -8.992  6.355  6.205
  86 SI -4.128  1.097  6.275
  87 SI -6.570  3.710  8.798
  88 SI -1.320  8.988  8.814
  89 SI -9.208 -8.388  2.031
  90 SI -3.561 -2.592  0.170
  91 SI -6.519 -1.200  3.281
  92 SI -1.993 -5.967  2.681
  93 SI -8.804 -3.418  6.398
  94 SI -3.726 -8.302  6.277
  95 SI -6.399 -5.999  8.969
  96 SI -1.564 -1.370  8.834
  97 SI  1.102  1.232 11.269
  98 SI  6.168  6.280 11.727
  99 SI  1.122 -8.680 11.535
 100 SI  6.006 -3.691 11.211
 101 SI -8.980  1.404 11.662
 102 SI -3.867  6.216 11.170
 103 SI -9.058 -8.484 11.459
 104 SI -4.008 -3.542 11.679
 105 SI  3.614  8.881 14.113
 106 SI  8.650  3.888 14.334
 107 SI  0.862  6.330 16.303
 108 SI  6.234  1.202 16.721
 109 SI  3.637  4.041 18.638
 110 SI  8.826  8.759 19.248
 111 SI  3.725 -1.141 13.950
 112 SI  8.406 -6.034 14.204
 113 SI  1.200 -3.615 16.553
 114 SI  6.042 -8.752 16.889
 115 SI  3.236 -6.355 19.358
 116 SI  8.306 -0.985 20.010
 117 SI -6.486  8.778 13.563
 118 SI -1.533  3.578 13.913
 119 SI -8.593  6.470 16.564
 120 SI -3.984  1.379 16.999
 121 SI -5.523  4.912 19.301
 122 SI -2.220  8.090 18.701
 123 SI -6.522 -1.115 14.333
 124 SI -1.300 -6.072 13.951
 125 SI -9.185 -3.406 16.994
 126 SI -3.872 -8.873 16.026
 127 SI -6.048 -6.153 18.696
 128 SI -1.683 -1.733 19.234
 129 HF -3.245  0.142-14.139
                               2561 S  
                                         2.400E+01 2.211E-01 0.000E+00 0.000E+00
                                         1.600E+01-3.581E+00 0.000E+00 0.000E+00
                                         1.440E+01 4.254E+00 0.000E+00 0.000E+00
                                         1.030E+01-6.959E-01 0.000E+00 0.000E+00
                               2562 S  
                                         3.793E+00 1.000E+00 0.000E+00 0.000E+00
                               2563 S  
                                         1.019E+00 1.000E+00 0.000E+00 0.000E+00
                               2564 S  
                                         4.599E-01 1.000E+00 0.000E+00 0.000E+00
                               2565 S  
                                         1.928E-01 1.000E+00 0.000E+00 0.000E+00
                          2566-2568 P  
                                         2.235E+01 0.000E+00-7.453E-03 0.000E+00
                                         8.740E+00 0.000E+00 1.564E-01 0.000E+00
                                         4.850E+00 0.000E+00-4.487E-01 0.000E+00
                          2569-2571 P  
                                         1.257E+00 0.000E+00 1.000E+00 0.000E+00
                          2572-2574 P  
                                         6.112E-01 0.000E+00 1.000E+00 0.000E+00
                          2575-2577 P  
                                         2.674E-01 0.000E+00 1.000E+00 0.000E+00
                          2578-2582 D  
                                         8.056E+00 0.000E+00 0.000E+00 9.673E-03
                                         4.342E+00 0.000E+00 0.000E+00-5.457E-02
                                         1.184E+00 0.000E+00 0.000E+00 1.969E-01
                                         5.134E-01 0.000E+00 0.000E+00 4.000E-01
                          2583-2587 D  
                                         2.055E-01 0.000E+00 0.000E+00 1.000E+00
 130 HF -2.459 -8.399-18.560
 131 HF -6.809 -4.634-16.035
 132 HF  1.095 -5.520-15.906
 133 HF  7.216  4.874-18.982
 134 HF  2.584  8.552-15.969
 135 HF  7.192 -7.832-17.474
 136 HF -3.203  6.879-14.247
 137 HF  2.725  0.403-16.894
 138 HF -7.500  8.211-18.022
 139 HF -8.286  2.191-15.836
 140 HF -1.861  3.140 -2.232
 141 HF -8.925 -7.475 -3.828
 142 HF -5.130 -9.838 -6.647
 143 HF  2.025  7.932 -5.195
 144 HF  3.956  1.616 -3.954
 145 HF  3.879 -5.391 -3.645
 146 HF -8.676 -9.617-11.308
 147 HF  9.569 -2.720 -1.025
 148 HF  8.450  6.841 -6.108
 149 HF -1.504 -1.931 -4.406
 150 HF  1.629  4.755-11.211
 151 HF  1.035 -1.673-10.214
 152 HF  4.900 -8.478-10.848
 153 HF  7.387  1.797 -9.277
 154 HF -0.219 -7.264 -9.234
 155 HF -3.915  5.372 -7.999
 156 HF -8.482  0.124 -5.390
 157 HF  7.811 -2.133-12.892
 158 HF -6.267 -2.899-10.469
 159 HF  7.786  6.323-13.412
 160 HF  7.665 -4.250 -7.332
 INFORMATION **** TOLINTEG **** COULOMB AND EXCHANGE SERIES TOLERANCES MODIFIED
 INFORMATION **** READM2 **** FULL DIRECT SCF (MONO AND BIEL INT) SELECTED
 INFORMATION **** SMEAR **** FERMI SMEARING ACTIVE
 FERMI SMEARING - TEMPERATURE SMEARING OF FERMI SURFACE  0.1000E-12
 INFORMATION **** MAXCYCLE **** MAX NUMBER OF SCF CYCLES SET TO         250

 MODIFIED BROYDEN MIXING OF THE FOCK MATRIX
 WO PARAMETER(D.D. Johnson, PRB38, 12807,(1988)             1.0000E-04
 % OF FOCK/KS MATRICES MIXING WHEN BROYDEN METHOD IS ON             95
 NUMBER OF SCF ITERATIONS AFTER WHICH BROYDEN METHOD IS ACTIVE     125
 INFORMATION **** TOLDEE **** SCF TOL ON TOTAL ENERGY SET TO           7
 *******************************************************************************
 N. OF ATOMS PER CELL      160  COULOMB OVERLAP TOL         (T1) 10** -8
 NUMBER OF SHELLS         1248  COULOMB PENETRATION TOL     (T2) 10** -8
 NUMBER OF AO             3424  EXCHANGE OVERLAP TOL        (T3) 10** -8
 N. OF ELECTRONS PER CELL 1792  EXCHANGE PSEUDO OVP (F(G))  (T4) 10** -8
 CORE ELECTRONS PER CELL   768  EXCHANGE PSEUDO OVP (P(G))  (T5) 10**-16
 N. OF SYMMETRY OPERATORS    1  POLE ORDER IN MONO ZONE                4
 *******************************************************************************
 TYPE OF CALCULATION :  UNRESTRICTED OPEN SHELL
 KOHN-SHAM HAMILTONIAN

 (EXCHANGE)[CORRELATION] FUNCTIONAL:(BECKE)[LEE-YANG-PARR]

 NON-LOCAL WEIGHTING FACTOR (EXCHANGE) =           0.9000
 NON-LOCAL WEIGHTING FACTOR [CORRELATION] =        0.8100

 HYBRID EXCHANGE - PERCENTAGE OF FOCK EXCHANGE    25.0000

 SPIN POLARIZED DFT SELECTED
 CORE  PSEUDO POTENTIAL         TOL. ON PSEUDO              (TP) 10**- 6

 CAPPA:IS1  2;IS2  2;IS3  2; K PTS MONK NET    8; SYMMOPS: K SPACE  2;G SPACE  1

 *******************************************************************************
 MAX NUMBER OF SCF CYCLES     250  CONVERGENCE ON DELTAP        10**-17
 WEIGHT OF F(I) IN F(I+1)      95% CONVERGENCE ON ENERGY        10**- 7
 SHRINK. FACT.(MONKH.)    2  2  2  NUMBER OF K POINTS IN THE IBZ      8
 SHRINKING FACTOR(GILAT NET)    2  NUMBER OF K POINTS(GILAT NET)      8
 *******************************************************************************
 *** K POINTS COORDINATES (OBLIQUE COORDINATES IN UNITS OF IS =  2)
   1-R(  0  0  0)   2-R(  1  0  0)   3-R(  0  1  0)   4-R(  1  1  0)
   5-R(  0  0  1)   6-R(  1  0  1)   7-R(  0  1  1)   8-R(  1  1  1)

 DIRECT LATTICE VECTORS COMPON. (A.U.)     RECIP. LATTICE VECTORS COMPON. (A.U.) 
        X            Y            Z              X            Y            Z
   20.0239557    0.0000000    0.0000000      0.3137834    0.0000000    0.0000000
    0.0000000   20.0110168    0.0000000      0.0000000    0.3139863    0.0000000
    0.0000000    0.0000000   40.9563992      0.0000000    0.0000000    0.1534116

 DISK SPACE FOR EIGENVECTORS (FTN 10)   93790208 REALS

 SYMMETRY ADAPTION OF THE BLOCH FUNCTIONS DISABLED

 DIMENSIONS  P(G)= 9133954 F(G)= 1619961 P(G),F(G) (IRR) 4575153
 MAX G-VECTOR INDEX FOR 1- AND 2-ELECTRON INTEGRALS  39

 TTTTTTTTTTTTTTTTTTTTTTTTTTTTTT INPUT       TELAPSE       14.46 TCPU       14.42

 NEIGHBORS OF THE NON-EQUIVALENT ATOMS

 N = NUMBER OF NEIGHBORS AT DISTANCE R
    ATOM  N     R/ANG      R/AU   NEIGHBORS (ATOM LABELS AND CELL INDICES)
   1 O    1     2.0752     3.9215 131 HF   0 0 0
   1 O    1     2.1391     4.0423 132 HF   0 0 0
   1 O    1     2.2043     4.1656 130 HF   0 0 0
   1 O    1     2.6107     4.9334   3 O    0 0-1
   1 O    1     2.6940     5.0909  33 O    0 0 0
   1 O    1     2.7660     5.2270  22 O    0 0 0
   1 O    1     2.8622     5.4088   9 O    0 0 0
   1 O    1     2.9408     5.5574 129 HF   0 0 0
   1 O    1     3.0186     5.7044  35 O    0 0 0
   1 O    1     3.0453     5.7548   8 O    0 0 0
   1 O    1     3.1837     6.0163  17 O    0 0 0
   1 O    1     3.2110     6.0679  59 O    0 0 0
   1 O    1     3.2245     6.0934  11 O    0 0 0
   1 O    1     3.4826     6.5811 128 SI   0 0-1
   1 O    1     3.4846     6.5849  28 O    0 0 0

   2 O    1     2.0107     3.7996 138 HF   0 0 0
   2 O    1     2.0519     3.8775 159 HF  -1 0 0
   2 O    1     2.0748     3.9208 133 HF  -1 0 0
   2 O    1     2.0927     3.9546 139 HF   0 0 0
   2 O    1     2.5261     4.7736  60 O   -1 0 0
   2 O    1     2.5566     4.8312  12 O   -1 0 0
   2 O    1     2.7087     5.1186  15 O   -1 1 0
   2 O    1     2.7778     5.2492  13 O    0 0 0
   2 O    1     2.9790     5.6295  16 O   -1 0 0
   2 O    1     3.2721     6.1834 110 SI  -1 0-1
   2 O    1     3.4523     6.5239  43 O    0 0 0
   2 O    1     3.5690     6.7445  14 O    0 0 0
   2 O    1     3.6264     6.8529 121 SI   0 0-1
   2 O    1     3.7381     7.0641 146 HF   0 1 0
   2 O    1     3.7787     7.1408  39 O   -1 0 0

   3 O    1     1.7477     3.3027 128 SI   0 0 0
   3 O    1     1.7550     3.3164 127 SI   0 0 0
   3 O    1     2.5062     4.7359   9 O    0 0 1
   3 O    1     2.5733     4.8629 130 HF   0 0 1
   3 O    1     2.6107     4.9334   1 O    0 0 1
   3 O    1     2.8580     5.4009  11 O    0 0 1
   3 O    1     3.1065     5.8704  17 O    0 0 1
   3 O    1     3.1272     5.9095 113 SI   0 0 0
   3 O    1     3.1387     5.9312 131 HF   0 0 1
   3 O    1     3.1790     6.0074 126 SI   0 0 0
   3 O    1     3.2481     6.1381   8 O    0 0 1
   3 O    1     3.3946     6.4148 125 SI   0 0 0
   3 O    1     3.4152     6.4539 120 SI   0 0 0
   3 O    1     3.5206     6.6529 124 SI   0 0 0
   3 O    1     3.7087     7.0084 132 HF   0 0 1

   4 O    1     1.7662     3.3376 109 SI   0 0-1
   4 O    1     2.0368     3.8489 137 HF   0 0 0
   4 O    1     2.0736     3.9185 133 HF   0 0 0
   4 O    1     2.9024     5.4848  11 O    0 0 0
   4 O    1     2.9167     5.5117  50 O    0 0 0
   4 O    1     2.9360     5.5482  16 O    0 0 0
   4 O    1     3.0805     5.8213   5 O    0 0 0
   4 O    1     3.1658     5.9824 134 HF   0 0 0
   4 O    1     3.3320     6.2966 108 SI   0 0-1
   4 O    1     3.3631     6.3554  12 O    0 0 0
   4 O    1     3.6003     6.8037  28 O    0 0 0
   4 O    1     3.6072     6.8166 116 SI   0 0-1
   4 O    1     3.6231     6.8467 107 SI   0 0-1
   4 O    1     3.9055     7.3803   2 O    1 0 0
   4 O    1     4.0096     7.5770  39 O    0 0 0

   5 O    1     1.9179     3.6244 157 HF   0 0 0
   5 O    1     1.9230     3.6340 137 HF   0 0 0
   5 O    1     2.9166     5.5115  12 O    0 0 0
   5 O    1     2.9202     5.5184  38 O    0 0 0
   5 O    1     3.0067     5.6818  28 O    0 0 0
   5 O    1     3.0805     5.8213   4 O    0 0 0
   5 O    1     3.0989     5.8560  39 O    0 0 0
   5 O    1     3.1194     5.8949 116 SI   0 0-1
   5 O    1     3.2018     6.0506  10 O    0 0 0
   5 O    1     3.2172     6.0797  60 O    0 0 0
   5 O    1     3.3363     6.3047  26 O    1 0 0
   5 O    1     3.3616     6.3524 139 HF   1 0 0
   5 O    1     3.4294     6.4806 133 HF   0 0 0
   5 O    1     3.4425     6.5053   7 O    0 0 0
   5 O    1     3.6072     6.8167  53 O    0 0 0

   6 O    1     2.0647     3.9017 132 HF   0 0 0
   6 O    1     2.0698     3.9114 135 HF   0 0 0
   6 O    1     2.1420     4.0477 134 HF   0-1 0
   6 O    1     2.2874     4.3225 152 HF   0 0 0
   6 O    1     2.4573     4.6437  58 O    0-1 0
   6 O    1     2.5071     4.7377  10 O    0 0 0
   6 O    1     2.5190     4.7602  59 O    0 0 0
   6 O    1     2.6170     4.9454  16 O    0-1 0
   6 O    1     2.6551     5.0175  33 O    0 0 0
   6 O    1     2.7302     5.1594  15 O    0 0 0
   6 O    1     2.9261     5.5295  53 O    0 0 0
   6 O    1     2.9956     5.6609  17 O    0 0 0
   6 O    1     3.5652     6.7372   7 O    0 0 0
   6 O    1     3.5829     6.7707 115 SI   0 0-1
   6 O    1     3.7581     7.1017 159 HF   0-1 0

   7 O    1     1.9308     3.6487 131 HF   1 0 0
   7 O    1     1.9579     3.6999 135 HF   0 0 0
   7 O    1     2.6525     5.0125   9 O    1 0 0
   7 O    1     2.8684     5.4204  10 O    0 0 0
   7 O    1     2.8923     5.4657  35 O    1 0 0
   7 O    1     2.9235     5.5247  15 O    0 0 0
   7 O    1     2.9357     5.5476  26 O    1 0 0
   7 O    1     3.0785     5.8174 116 SI   0 0-1
   7 O    1     3.1337     5.9219 157 HF   0 0 0
   7 O    1     3.3748     6.3775 127 SI   1 0-1
   7 O    1     3.4425     6.5053   5 O    0 0 0
   7 O    1     3.5652     6.7372   6 O    0 0 0
   7 O    1     3.5839     6.7725  53 O    0 0 0
   7 O    1     3.6422     6.8827 125 SI   1 0-1
   7 O    1     3.7100     7.0108 138 HF   1-1 0

   8 O    1     1.9299     3.6470 129 HF   0 0 0
   8 O    1     2.0422     3.8592 139 HF   0 0 0
   8 O    1     2.4455     4.6214  26 O    0 0 0
   8 O    1     2.6843     5.0726  43 O    0 0 0
   8 O    1     2.6974     5.0974 131 HF   0 0 0
   8 O    1     2.9904     5.6510  12 O   -1 0 0
   8 O    1     3.0453     5.7548   1 O    0 0 0
   8 O    1     3.0774     5.8155  11 O    0 0 0
   8 O    1     3.2410     6.1246 128 SI   0 0-1
   8 O    1     3.2481     6.1381   3 O    0 0-1
   8 O    1     3.4880     6.5913 121 SI   0 0-1
   8 O    1     3.5441     6.6974  28 O    0 0 0
   8 O    1     3.5588     6.7252  22 O    0 0 0
   8 O    1     3.7335     7.0553 120 SI   0 0-1
   8 O    1     3.8402     7.2570   7 O   -1 0 0

   9 O    1     1.8062     3.4132 127 SI   0 0-1
   9 O    1     2.0612     3.8951 130 HF   0 0 0
   9 O    1     2.2860     4.3200 138 HF   0-1 0
   9 O    1     2.4612     4.6510 131 HF   0 0 0
   9 O    1     2.5062     4.7359   3 O    0 0-1
   9 O    1     2.6155     4.9426  14 O    0-1 0
   9 O    1     2.6525     5.0125   7 O   -1 0 0
   9 O    1     2.8622     5.4088   1 O    0 0 0
   9 O    1     3.2654     6.1707 126 SI   0 0-1
   9 O    1     3.2740     6.1869  13 O    0-1 0
   9 O    1     3.3949     6.4154 122 SI   0-1-1
   9 O    1     3.4150     6.4534 110 SI  -1-1-1
   9 O    1     3.6214     6.8435 135 HF  -1 0 0
   9 O    1     3.6354     6.8700  35 O    0 0 0
   9 O    1     3.7485     7.0836 125 SI   0 0-1

  10 O    1     1.6803     3.1753 115 SI   0 0-1
  10 O    1     2.0409     3.8567 135 HF   0 0 0
  10 O    1     2.4051     4.5449  17 O    0 0 0
  10 O    1     2.5071     4.7377   6 O    0 0 0
  10 O    1     2.5291     4.7794 132 HF   0 0 0
  10 O    1     2.8684     5.4204   7 O    0 0 0
  10 O    1     3.1361     5.9264 116 SI   0 0-1
  10 O    1     3.2018     6.0506   5 O    0 0 0
  10 O    1     3.3003     6.2366  16 O    0-1 0
  10 O    1     3.3189     6.2719 114 SI   0 0-1
  10 O    1     3.3839     6.3946 137 HF   0 0 0
  10 O    1     3.4761     6.5688  11 O    0 0 0
  10 O    1     3.5259     6.6630 113 SI   0 0-1
  10 O    1     3.8101     7.2000 134 HF   0-1 0
  10 O    1     3.9899     7.5398 157 HF   0 0 0

  11 O    1     1.6675     3.1512 128 SI   0 0-1
  11 O    1     1.9938     3.7677 137 HF   0 0 0
  11 O    1     2.8580     5.4009   3 O    0 0-1
  11 O    1     2.8781     5.4388  28 O    0 0 0
  11 O    1     2.9024     5.4848   4 O    0 0 0
  11 O    1     3.0774     5.8155   8 O    0 0 0
  11 O    1     3.1644     5.9799 132 HF   0 0 0
  11 O    1     3.1755     6.0007 113 SI   0 0-1
  11 O    1     3.2245     6.0934   1 O    0 0 0
  11 O    1     3.2610     6.1624 129 HF   0 0 0
  11 O    1     3.4411     6.5027 120 SI   0 0-1
  11 O    1     3.4761     6.5688  10 O    0 0 0
  11 O    1     3.5373     6.6845 109 SI   0 0-1
  11 O    1     3.6478     6.8933 115 SI   0 0-1
  11 O    1     3.7192     7.0284   5 O    0 0 0

  12 O    1     1.8670     3.5281 116 SI   0 0-1
  12 O    1     2.0553     3.8839 139 HF   1 0 0
  12 O    1     2.1193     4.0048 133 HF   0 0 0
  12 O    1     2.5566     4.8312   2 O    1 0 0
  12 O    1     2.9166     5.5115   5 O    0 0 0
  12 O    1     2.9904     5.6510   8 O    1 0 0
  12 O    1     3.2862     6.2100 108 SI   0 0-1
  12 O    1     3.3631     6.3554   4 O    0 0 0
  12 O    1     3.3802     6.3877 121 SI   1 0-1
  12 O    1     3.4802     6.5767  26 O    1 0 0
  12 O    1     3.5778     6.7611  60 O    0 0 0
  12 O    1     3.7931     7.1678 125 SI   1 0-1
  12 O    1     3.8119     7.2035   7 O    0 0 0
  12 O    1     3.8165     7.2122 138 HF   1 0 0
  12 O    1     3.8211     7.2208 109 SI   0 0-1

  13 O    1     2.0061     3.7909 136 HF   0 0 0
  13 O    1     2.0562     3.8856 146 HF   0 1 0
  13 O    1     2.1853     4.1297 138 HF   0 0 0
  13 O    1     2.4137     4.5612  14 O    0 0 0
  13 O    1     2.6172     4.9457  15 O   -1 1 0
  13 O    1     2.7123     5.1254  34 O    0 0 0
  13 O    1     2.7778     5.2492   2 O    0 0 0
  13 O    1     2.7899     5.2721  35 O    0 1 0
  13 O    1     3.0251     5.7166  43 O    0 0 0
  13 O    1     3.2372     6.1175  52 O    0 0 0
  13 O    1     3.2727     6.1844  33 O    0 1 0
  13 O    1     3.2740     6.1869   9 O    0 1 0
  13 O    1     3.2754     6.1896  24 O    0 1 0
  13 O    1     3.3664     6.3616 159 HF  -1 0 0
  13 O    1     3.4906     6.5962 130 HF   0 1 0

  14 O    1     1.9807     3.7430 136 HF   0 0 0
  14 O    1     1.9845     3.7502 138 HF   0 0 0
  14 O    1     1.9969     3.7736 130 HF   0 1 0
  14 O    1     2.4137     4.5612  13 O    0 0 0
  14 O    1     2.4464     4.6231  33 O    0 1 0
  14 O    1     2.5382     4.7965 122 SI   0 0-1
  14 O    1     2.6155     4.9426   9 O    0 1 0
  14 O    1     2.8625     5.4093 121 SI   0 0-1
  14 O    1     3.0256     5.7176  50 O    0 0 0
  14 O    1     3.4080     6.4403  43 O    0 0 0
  14 O    1     3.4873     6.5901  17 O    0 1 0
  14 O    1     3.4887     6.5926 134 HF   0 0 0
  14 O    1     3.5690     6.7445   2 O    0 0 0
[...]
 136 HF   1     2.4321     4.5960  33 O    0 1 0
 136 HF   1     3.1077     5.8726 138 HF   0 0 0
 136 HF   1     3.2220     6.0887 150 HF   0 0 0
 136 HF   1     3.3152     6.2648 134 HF   0 0 0
 136 HF   1     3.3477     6.3263  34 O    0 0 0
 136 HF   1     3.4111     6.4461 130 HF   0 1 0
 136 HF   1     3.4225     6.4675 155 HF   0 0 0
 136 HF   1     3.5658     6.7384 129 HF   0 0 0
 136 HF   1     3.7225     7.0345  24 O    0 1 0
 136 HF   1     3.7548     7.0955 139 HF   0 0 0

 137 HF   1     1.9230     3.6340   5 O    0 0 0
 137 HF   1     1.9434     3.6726  28 O    0 0 0
 137 HF   1     1.9938     3.7677  11 O    0 0 0
 137 HF   1     2.0368     3.8489   4 O    0 0 0
 137 HF   1     3.1461     5.9453  50 O    0 0 0
 137 HF   1     3.2928     6.2225 132 HF   0 0 0
 137 HF   1     3.3839     6.3946  10 O    0 0 0
 137 HF   1     3.4821     6.5802 129 HF   0 0 0
 137 HF   1     3.4897     6.5946 109 SI   0 0-1
 137 HF   1     3.5308     6.6723 133 HF   0 0 0
 137 HF   1     3.5627     6.7326  39 O    0 0 0
 137 HF   1     3.6392     6.8770 128 SI   0 0-1
 137 HF   1     3.6784     6.9512 157 HF   0 0 0
 137 HF   1     3.7230     7.0354 116 SI   0 0-1
 137 HF   1     3.8082     7.1965 151 HF   0 0 0

 138 HF   1     1.9845     3.7502  14 O    0 0 0
 138 HF   1     2.0107     3.7996   2 O    0 0 0
 138 HF   1     2.1853     4.1297  13 O    0 0 0
 138 HF   1     2.2860     4.3200   9 O    0 1 0
 138 HF   1     2.7783     5.2502 110 SI  -1 0-1
 138 HF   1     2.7995     5.2903 121 SI   0 0-1
 138 HF   1     2.9508     5.5762  15 O   -1 1 0
 138 HF   1     3.1077     5.8726 136 HF   0 0 0
 138 HF   1     3.2304     6.1045 130 HF   0 1 0
 138 HF   1     3.3568     6.3435 133 HF  -1 0 0
 138 HF   1     3.4148     6.4531 139 HF   0 0 0
 138 HF   1     3.5293     6.6694 135 HF  -1 1 0
 138 HF   1     3.5421     6.6936 119 SI   0 0-1
 138 HF   1     3.5816     6.7682 122 SI   0 0-1
 138 HF   1     3.6383     6.8754 159 HF  -1 0 0

 139 HF   1     2.0422     3.8592   8 O    0 0 0
 139 HF   1     2.0553     3.8839  12 O   -1 0 0
 139 HF   1     2.0927     3.9546   2 O    0 0 0
 139 HF   1     2.1336     4.0320  60 O   -1 0 0
 139 HF   1     2.2640     4.2783  26 O    0 0 0
 139 HF   1     2.4199     4.5730  43 O    0 0 0
 139 HF   1     3.0162     5.6998 129 HF   0 0 0
 139 HF   1     3.2427     6.1279 133 HF  -1 0 0
 139 HF   1     3.2864     6.2104 159 HF  -1 0 0
 139 HF   1     3.3616     6.3524   5 O   -1 0 0
 139 HF   1     3.4148     6.4531 138 HF   0 0 0
 139 HF   1     3.4616     6.5414 157 HF  -1 0 0
 139 HF   1     3.6656     6.9270 116 SI  -1 0-1
 139 HF   1     3.6967     6.9858 131 HF   0 0 0
 139 HF   1     3.7005     6.9929 121 SI   0 0-1

 140 HF   1     1.9057     3.6013  19 O    0 0 0
 140 HF   1     1.9725     3.7274  21 O    0 0 0
 140 HF   1     2.1164     3.9994  32 O    0 0 0
 140 HF   1     2.3975     4.5306  30 O    0 0 0
 140 HF   1     2.7869     5.2664  82 SI   0 0 0
 140 HF   1     2.7930     5.2781  63 O    0 0 0
 140 HF   1     2.9258     5.5290 149 HF   0 0 0
 140 HF   1     2.9342     5.5449  65 SI   0 0 0
 140 HF   1     2.9734     5.6189  18 O    0 0 0
 140 HF   1     3.0532     5.7697  36 O    0 0 0
 140 HF   1     3.3102     6.2554 144 HF   0 0 0
 140 HF   1     3.3269     6.2869  54 O    0 0 0
 140 HF   1     3.4097     6.4433  90 SI   0 0 0
 140 HF   1     3.4477     6.5153 155 HF   0 0 0
 140 HF   1     3.5105     6.6339  84 SI   0 0 0

 141 HF   1     1.9461     3.6777  49 O    0 0 0
 141 HF   1     1.9892     3.7590  62 O    0-1 0
 141 HF   1     2.0274     3.8312  55 O   -1 0 0
 141 HF   1     2.0647     3.9018  23 O    0 0 0
 141 HF   1     2.1318     4.0285  20 O    0 0 0
 141 HF   1     2.1591     4.0802  45 O    0 0 0
 141 HF   1     2.7968     5.2851 142 HF   0 0 0
 141 HF   1     2.8931     5.4671  25 O   -1-1 0
 141 HF   1     3.0309     5.7276 147 HF  -1 0 0
 141 HF   1     3.1067     5.8709 160 HF  -1 0 0
 141 HF   1     3.1416     5.9368  89 SI   0 0 0
 141 HF   1     3.5359     6.6818 148 HF  -1-1 0
 141 HF   1     3.8218     7.2222  56 O   -1 0 0
 141 HF   1     3.8357     7.2484  18 O    0 0 0
 141 HF   1     3.8637     7.3013  27 O   -1-1 0

 142 HF   1     1.9198     3.6280  49 O    0 0 0
 142 HF   1     1.9576     3.6993  24 O    0 0 0
 142 HF   1     2.0019     3.7831  54 O    0-1 0
 142 HF   1     2.0660     3.9042  34 O    0-1 0
 142 HF   1     2.3264     4.3964  62 O    0-1 0
 142 HF   1     2.4044     4.5436  45 O    0 0 0
 142 HF   1     2.7164     5.1332 155 HF   0-1 0
 142 HF   1     2.7968     5.2851 141 HF   0 0 0
 142 HF   1     3.1013     5.8606 146 HF   0 0 0
 142 HF   1     3.2378     6.1186 154 HF   0 0 0
 142 HF   1     3.3741     6.3762  52 O    0-1 0
 142 HF   1     3.7294     7.0475  19 O    0-1 0
 142 HF   1     3.8493     7.2742 148 HF  -1-1 0
 142 HF   1     3.9048     7.3790  41 O    0-1 0
 142 HF   1     3.9621     7.4872  40 O    0 0 0

 143 HF   1     1.9591     3.7022  21 O    0 0 0
 143 HF   1     2.0242     3.8251  41 O    0 0 0
 143 HF   1     2.0936     3.9563  37 O    0 1 0
 143 HF   1     2.1716     4.1038  54 O    0 0 0
 143 HF   1     2.5476     4.8142  27 O    0 0 0
 143 HF   1     2.8727     5.4286  46 O    0 0 0
 143 HF   1     3.3463     6.3236  36 O    0 0 0
 143 HF   1     3.3832     6.3933  73 SI   0 1 0
 143 HF   1     3.4824     6.5808 148 HF   0 0 0
 143 HF   1     3.5317     6.6739 154 HF   0 1 0
 143 HF   1     3.5519     6.7121  29 O    0 1 0
 143 HF   1     3.5561     6.7200 144 HF   0 0 0
 143 HF   1     3.6067     6.8157 150 HF   0 0 0
 143 HF   1     3.6213     6.8432 140 HF   0 0 0
 143 HF   1     3.6260     6.8522  52 O    0 0 0

 144 HF   1     2.0267     3.8300  63 O    0 0 0
 144 HF   1     2.0346     3.8449  46 O    0 0 0
 144 HF   1     2.0845     3.9391  44 O    0 0 0
 144 HF   1     2.1625     4.0864  21 O    0 0 0
 144 HF   1     2.2252     4.2051  64 O    0 0 0
 144 HF   1     3.2467     6.1354  27 O    0 0 0
 144 HF   1     3.3102     6.2554 140 HF   0 0 0
 144 HF   1     3.3263     6.2858  56 O    0 0 0
 144 HF   1     3.3526     6.3354 153 HF   0 0 0
 144 HF   1     3.4448     6.5098  65 SI   0 0 0
 144 HF   1     3.4537     6.5265 149 HF   0 0 0
 144 HF   1     3.5378     6.6856  47 O    0 0 0
 144 HF   1     3.5561     6.7200 143 HF   0 0 0
 144 HF   1     3.6130     6.8277  32 O    0 0 0
 144 HF   1     3.6753     6.9454  38 O    0 0 0

 145 HF   1     1.9801     3.7418  55 O    0 0 0
 145 HF   1     2.0149     3.8076  44 O    0 0 0
 145 HF   1     2.0536     3.8807  56 O    0 0 0
 145 HF   1     2.1184     4.0031  29 O    0 0 0
 145 HF   1     2.2143     4.1844  37 O    0 0 0
 145 HF   1     2.8611     5.4068 160 HF   0 0 0
 145 HF   1     3.1533     5.9589  40 O    0 0 0
 145 HF   1     3.2641     6.1682  64 O    0 0 0
 145 HF   1     3.3172     6.2687  73 SI   0 0 0
 145 HF   1     3.3966     6.4186  42 O    0 0 0
 145 HF   1     3.4101     6.4441 149 HF   0 0 0
 145 HF   1     3.6038     6.8103 147 HF   0 0 0
 145 HF   1     3.6629     6.9220  74 SI   0 0 0
 145 HF   1     3.7024     6.9965  41 O    0-1 0
 145 HF   1     3.7121     7.0148 144 HF   0 0 0

 146 HF   1     2.0562     3.8856  13 O    0-1 0
 146 HF   1     2.0869     3.9437  15 O   -1 0 0
 146 HF   1     2.1021     3.9724  34 O    0-1 0
 146 HF   1     2.1134     3.9938  35 O    0 0 0
 146 HF   1     2.1174     4.0013  45 O    0 0 0
 146 HF   1     2.2116     4.1794  51 O   -1-1 0
 146 HF   1     2.9063     5.4922  24 O    0 0 0
 146 HF   1     3.0395     5.7439  53 O   -1 0 0
 146 HF   1     3.0712     5.8037 159 HF  -1-1 0
 146 HF   1     3.1013     5.8606 142 HF   0 0 0
 146 HF   1     3.4733     6.5636 152 HF  -1 0 0
 146 HF   1     3.6688     6.9330 148 HF  -1-1 0
 146 HF   1     3.6714     6.9379  62 O    0-1 0
 146 HF   1     3.7381     7.0641   2 O    0-1 0
 146 HF   1     3.7664     7.1175 131 HF   0 0 0

 147 HF   1     2.0247     3.8261  56 O    0 0 0
 147 HF   1     2.0708     3.9132  23 O    1 0 0
 147 HF   1     2.0965     3.9619  31 O    1 0 0
 147 HF   1     2.1196     4.0055  20 O    1 0 0
 147 HF   1     2.5075     4.7385  74 SI   0 0 0
 147 HF   1     2.9104     5.4999  55 O    0 0 0
 147 HF   1     2.9479     5.5706 156 HF   1 0 0
 147 HF   1     3.0032     5.6752  64 O    0 0 0
 147 HF   1     3.0309     5.7276 141 HF   1 0 0
 147 HF   1     3.0620     5.7863  81 SI   1 0 0
 147 HF   1     3.1100     5.8770  18 O    1 0 0
 147 HF   1     3.1899     6.0281  91 SI   1 0 0
 147 HF   1     3.4707     6.5587  89 SI   1 0 0
 147 HF   1     3.5787     6.7628 160 HF   0 0 0
 147 HF   1     3.6038     6.8103 145 HF   0 0 0

 148 HF   1     2.0088     3.7961  62 O    1 0 0
 148 HF   1     2.0495     3.8730  48 O    1 0 0
 148 HF   1     2.0771     3.9251  51 O    0 0 0
 148 HF   1     2.1067     3.9811  27 O    0 0 0
 148 HF   1     2.2248     4.2043  46 O    0 0 0
 148 HF   1     3.0096     5.6873  34 O    1 0 0
 148 HF   1     3.2025     6.0518 153 HF   0 0 0
 148 HF   1     3.4609     6.5401  45 O    1 1 0
 148 HF   1     3.4824     6.5808 143 HF   0 0 0
 148 HF   1     3.5100     6.6329  66 SI   0 0 0
 148 HF   1     3.5359     6.6818 141 HF   1 1 0
 148 HF   1     3.6209     6.8425  55 O    0 1 0
 148 HF   1     3.6688     6.9330 146 HF   1 1 0
 148 HF   1     3.7234     7.0362  25 O    0 0 0
 148 HF   1     3.7550     7.0959  39 O    0 0 0

 149 HF   1     1.9941     3.7683  40 O    0 0 0
 149 HF   1     2.0183     3.8140  44 O    0 0 0
 149 HF   1     2.0496     3.8732  18 O    0 0 0
 149 HF   1     2.5776     4.8710  32 O    0 0 0
 149 HF   1     2.6777     5.0601  90 SI   0 0 0
 149 HF   1     2.8104     5.3109  61 O    0 0 0
 149 HF   1     2.9258     5.5290 140 HF   0 0 0
 149 HF   1     3.1913     6.0307  19 O    0 0 0
 149 HF   1     3.3570     6.3439 151 HF   0 0 0
 149 HF   1     3.4101     6.4441 145 HF   0 0 0
 149 HF   1     3.4537     6.5265 144 HF   0 0 0
 149 HF   1     3.4603     6.5391  47 O    0 0 0
 149 HF   1     3.4891     6.5934  49 O    0 0 0
 149 HF   1     3.7148     7.0200  21 O    0 0 0
 149 HF   1     3.8485     7.2726  22 O    0 0 0

 150 HF   1     1.9428     3.6713  47 O    0 0 0
 150 HF   1     1.9717     3.7259  39 O    0 0 0
 150 HF   1     2.0734     3.9182  52 O    0 0 0
 150 HF   1     2.0995     3.9675  50 O    0 0 0
 150 HF   1     2.3841     4.5054  58 O    0 0 0
 150 HF   1     2.9056     5.4908  28 O    0 0 0
 150 HF   1     3.0958     5.8502  41 O    0 0 0
 150 HF   1     3.1830     6.0150  46 O    0 0 0
 150 HF   1     3.2220     6.0887 136 HF   0 0 0
 150 HF   1     3.2610     6.1624 134 HF   0 0 0
 150 HF   1     3.4065     6.4373 155 HF   0 0 0
 150 HF   1     3.4565     6.5319 151 HF   0 0 0
 150 HF   1     3.5584     6.7245 159 HF   0 0 0
 150 HF   1     3.5748     6.7554  43 O    0 0 0
 150 HF   1     3.5752     6.7562 153 HF   0 0 0

 151 HF   1     1.9889     3.7584  47 O    0 0 0
 151 HF   1     2.0334     3.8426  38 O    0 0 0
 151 HF   1     2.0934     3.9559  40 O    0 0 0
 151 HF   1     2.1555     4.0733  22 O    0 0 0
 151 HF   1     2.1603     4.0824  59 O    0 0 0
 151 HF   1     2.1974     4.1524  28 O    0 0 0
 151 HF   1     3.0759     5.8127 154 HF   0 0 0
 151 HF   1     3.2198     6.0845 129 HF   0 0 0
 151 HF   1     3.2651     6.1702  29 O    0 0 0
 151 HF   1     3.3570     6.3439 149 HF   0 0 0
 151 HF   1     3.4063     6.4369  44 O    0 0 0
 151 HF   1     3.4565     6.5319 150 HF   0 0 0
 151 HF   1     3.6355     6.8702 132 HF   0 0 0
 151 HF   1     3.7199     7.0296  39 O    0 0 0
 151 HF   1     3.8082     7.1965 137 HF   0 0 0

 152 HF   1     2.0243     3.8253  53 O    0 0 0
 152 HF   1     2.0780     3.9268  58 O    0-1 0
 152 HF   1     2.1483     4.0597  29 O    0 0 0
 152 HF   1     2.1572     4.0765  41 O    0-1 0
 152 HF   1     2.2874     4.3225   6 O    0 0 0
 152 HF   1     2.3240     4.3917  51 O    0-1 0
 152 HF   1     2.5322     4.7851  59 O    0 0 0
 152 HF   1     2.8750     5.4329  15 O    0 0 0
 152 HF   1     2.9123     5.5035 154 HF   0 0 0
 152 HF   1     3.2574     6.1555 160 HF   0 0 0
 152 HF   1     3.3667     6.3621 134 HF   0-1 0
 152 HF   1     3.4312     6.4841 159 HF   0-1 0
 152 HF   1     3.4733     6.5636 146 HF   1 0 0
 152 HF   1     3.6970     6.9864 132 HF   0 0 0
 152 HF   1     3.7134     7.0172  45 O    1 0 0

 153 HF   1     2.0054     3.7897  39 O    0 0 0
 153 HF   1     2.0851     3.9403  46 O    0 0 0
 153 HF   1     2.1310     4.0270  48 O    1 0 0
 153 HF   1     2.1606     4.0829  38 O    0 0 0
 153 HF   1     2.1792     4.1182  57 O    0 0 0
 153 HF   1     2.2193     4.1938  60 O    0 0 0
 153 HF   1     2.2837     4.3156  64 O    0 0 0
 153 HF   1     2.8342     5.3560 157 HF   0 0 0
 153 HF   1     3.1385     5.9309 156 HF   1 0 0
 153 HF   1     3.2025     6.0518 148 HF   0 0 0
 153 HF   1     3.2511     6.1437 159 HF   0 0 0
 153 HF   1     3.3526     6.3354 144 HF   0 0 0
 153 HF   1     3.3643     6.3577 160 HF   0 0 0
 153 HF   1     3.5752     6.7562 150 HF   0 0 0
 153 HF   1     3.6100     6.8220   5 O    0 0 0

 154 HF   1     1.9134     3.6158  24 O    0 0 0
 154 HF   1     1.9543     3.6930  41 O    0-1 0
 154 HF   1     1.9919     3.7642  40 O    0 0 0
 154 HF   1     1.9927     3.7656  59 O    0 0 0
 154 HF   1     2.5960     4.9056  29 O    0 0 0
 154 HF   1     2.9123     5.5035 152 HF   0 0 0
 154 HF   1     3.0693     5.8001  22 O    0 0 0
 154 HF   1     3.0759     5.8127 151 HF   0 0 0
 154 HF   1     3.1098     5.8767  54 O    0-1 0
 154 HF   1     3.2378     6.1186 142 HF   0 0 0
 154 HF   1     3.3843     6.3953  52 O    0-1 0
 154 HF   1     3.4186     6.4602  33 O    0 0 0
 154 HF   1     3.5087     6.6304  37 O    0 0 0
 154 HF   1     3.5317     6.6739 143 HF   0-1 0
 154 HF   1     3.7149     7.0202 132 HF   0 0 0

 155 HF   1     1.9580     3.7000  19 O    0 0 0
 155 HF   1     2.0143     3.8065  52 O    0 0 0
 155 HF   1     2.0403     3.8557  34 O    0 0 0
 155 HF   1     2.0777     3.9263  54 O    0 0 0
 155 HF   1     2.7164     5.1332 142 HF   0 1 0
 155 HF   1     2.9315     5.5397  47 O    0 0 0
 155 HF   1     3.0562     5.7753  43 O    0 0 0
 155 HF   1     3.3566     6.3431  48 O    0 0 0
 155 HF   1     3.3969     6.4191  61 O    0 0 0
 155 HF   1     3.4065     6.4373 150 HF   0 0 0
 155 HF   1     3.4225     6.4675 136 HF   0 0 0
 155 HF   1     3.4474     6.5146  21 O    0 0 0
 155 HF   1     3.4477     6.5153 140 HF   0 0 0
 155 HF   1     3.6293     6.8583  24 O    0 1 0
 155 HF   1     3.6460     6.8900  62 O    0 0 0

 156 HF   1     1.9555     3.6954  61 O    0 0 0
 156 HF   1     2.0348     3.8452  20 O    0 0 0
 156 HF   1     2.0357     3.8469  31 O    0 0 0
 156 HF   1     2.0646     3.9016  48 O    0 0 0
 156 HF   1     2.3687     4.4762  64 O   -1 0 0
 156 HF   1     2.4748     4.6766  57 O   -1 0 0
 156 HF   1     2.5534     4.8253  18 O    0 0 0
 156 HF   1     2.8325     5.3527  19 O    0 0 0
 156 HF   1     2.9479     5.5706 147 HF  -1 0 0
 156 HF   1     3.1385     5.9309 153 HF  -1 0 0
 156 HF   1     3.2591     6.1589 160 HF  -1 0 0
 156 HF   1     3.3399     6.3116 158 HF   0 0 0
 156 HF   1     3.5817     6.7684  81 SI   0 0 0
 156 HF   1     3.8709     7.3150  46 O   -1 0 0
 156 HF   1     3.8845     7.3407 149 HF   0 0 0

 157 HF   1     1.9179     3.6244   5 O    0 0 0
 157 HF   1     2.0328     3.8414  53 O    0 0 0
 157 HF   1     2.1497     4.0623  57 O    0 0 0
 157 HF   1     2.1613     4.0842  38 O    0 0 0
 157 HF   1     2.2681     4.2861  26 O    1 0 0
 157 HF   1     2.8342     5.3560 153 HF   0 0 0
 157 HF   1     2.9899     5.6501  60 O    0 0 0
 157 HF   1     3.1337     5.9219   7 O    0 0 0
 157 HF   1     3.1491     5.9510 160 HF   0 0 0
 157 HF   1     3.3315     6.2955  35 O    1 0 0
 157 HF   1     3.4217     6.4661 158 HF   1 0 0
 157 HF   1     3.4616     6.5414 139 HF   1 0 0
 157 HF   1     3.4940     6.6027  39 O    0 0 0
 157 HF   1     3.5633     6.7337 131 HF   1 0 0
 157 HF   1     3.6784     6.9512 137 HF   0 0 0

 158 HF   1     1.9319     3.6508  61 O    0 0 0
 158 HF   1     1.9762     3.7345  22 O    0 0 0
 158 HF   1     2.1439     4.0514  26 O    0 0 0
 158 HF   1     2.1814     4.1222  35 O    0 0 0
 158 HF   1     2.2630     4.2765  57 O   -1 0 0
 158 HF   1     2.9863     5.6433 129 HF   0 0 0
 158 HF   1     3.0285     5.7230  24 O    0 0 0
 158 HF   1     3.0984     5.8552 131 HF   0 0 0
 158 HF   1     3.1045     5.8666  45 O    0 0 0
 158 HF   1     3.3399     6.3116 156 HF   0 0 0
 158 HF   1     3.4217     6.4661 157 HF  -1 0 0
 158 HF   1     3.4396     6.4999  20 O    0 0 0
 158 HF   1     3.4923     6.5995  40 O    0 0 0
 158 HF   1     3.6724     6.9399   1 O    0 0 0
 158 HF   1     3.6957     6.9838 160 HF  -1 0 0

 159 HF   1     2.0338     3.8434  60 O    0 0 0
 159 HF   1     2.0519     3.8775   2 O    1 0 0
 159 HF   1     2.1269     4.0192  39 O    0 0 0
 159 HF   1     2.1839     4.1270  58 O    0 0 0
 159 HF   1     2.1934     4.1449  15 O    0 1 0
 159 HF   1     2.3978     4.5311  51 O    0 0 0
 159 HF   1     3.0193     5.7057  16 O    0 0 0
 159 HF   1     3.0607     5.7838 133 HF   0 0 0
 159 HF   1     3.0712     5.8037 146 HF   1 1 0
 159 HF   1     3.2511     6.1437 153 HF   0 0 0
 159 HF   1     3.2864     6.2104 139 HF   1 0 0
 159 HF   1     3.2866     6.2108 134 HF   0 0 0
 159 HF   1     3.3664     6.3616  13 O    1 0 0
 159 HF   1     3.4312     6.4841 152 HF   0 1 0
 159 HF   1     3.5584     6.7245 150 HF   0 0 0

 160 HF   1     2.0794     3.9296  29 O    0 0 0
 160 HF   1     2.1347     4.0340  20 O    1 0 0
 160 HF   1     2.1468     4.0568  53 O    0 0 0
 160 HF   1     2.1646     4.0906  64 O    0 0 0
 160 HF   1     2.1662     4.0935  57 O    0 0 0
 160 HF   1     2.1839     4.1269  55 O    0 0 0
 160 HF   1     2.5638     4.8448  45 O    1 0 0
 160 HF   1     2.6479     5.0038  38 O    0 0 0
 160 HF   1     2.8611     5.4068 145 HF   0 0 0
 160 HF   1     3.1067     5.8709 141 HF   1 0 0
 160 HF   1     3.1491     5.9510 157 HF   0 0 0
 160 HF   1     3.2574     6.1555 152 HF   0 0 0
 160 HF   1     3.2591     6.1589 156 HF   1 0 0
 160 HF   1     3.3643     6.3577 153 HF   0 0 0
 160 HF   1     3.5787     6.7628 147 HF   0 0 0


 SYMMETRY ALLOWED INTERNAL DEGREE(S) OF FREEDOM: 477
 TTTTTTTTTTTTTTTTTTTTTTTTTTTTTT SYMM        TELAPSE       14.59 TCPU       14.55
 TTTTTTTTTTTTTTTTTTTTTTTTTTTTTT INT_SCREEN  TELAPSE       19.72 TCPU       19.67
 INFORMATION **** EXCBUF **** EXCH. BIPO BUFFER: WORDS USED =      360000
 WARNING **** EXCBUF **** EXCH. BIPO BUFFER TOO SMALL - TO AVOID I/O SET EXCHSIZE =    29293938

 DFT PARAMETERS

     ATOM       ELECTRONS   NET CHARGE   R(ANGSTROM)
   1   8  O      10.0000     -2.0000     1.40000000
  65  14  SI     14.0000      0.0000     1.17000000
 129 272  HF      8.0000      4.0000     0.71000000
forrtl: error (69): process interrupted (SIGINT)
Image              PC                Routine            Line        Source             
crystal            0000000000B9F499  Unknown               Unknown  Unknown
crystal            0000000000B9DE10  Unknown               Unknown  Unknown
crystal            0000000000B505A2  Unknown               Unknown  Unknown
crystal            0000000000AFDEE3  Unknown               Unknown  Unknown
crystal            0000000000B03C35  Unknown               Unknown  Unknown
libpthread.so.0    00007FFFEC1E2850  Unknown               Unknown  Unknown
crystal            000000000061DD57  Unknown               Unknown  Unknown
crystal            0000000000631A58  Unknown               Unknown  Unknown
crystal            0000000000624532  Unknown               Unknown  Unknown
crystal            000000000070AE26  Unknown               Unknown  Unknown
crystal            000000000043926F  Unknown               Unknown  Unknown
crystal            0000000000438F86  Unknown               Unknown  Unknown
libc.so.6          00007FFFEBE75C36  Unknown               Unknown  Unknown
crystal            0000000000438E79  Unknown               Unknown  Unknown
