
         
 *******************************************************************************
 *                                                                             *
 *                                CRYSTAL09                                    *
 *                              public : 2.0                                   *
 *                      December 10th, 2012 - sequential executable            *
 *                                                                             *
 *                                                                             *
 *                                                                             *
 *                              MAIN AUTHORS                                   *
 *                                                                             *
 *    R. DOVESI(1,10), V.R. SAUNDERS(2), C. ROETTI(1,10), R. ORLANDO (1,3),    *
 *  C.M. ZICOVICH-WILSON(1,4), F. PASCALE(5), B. CIVALLERI(1,10), K. DOLL(6),  *
 *       N.M. HARRISON(2,7), I. J. BUSH(2), Ph. D'ARCO(8), M. LLUNELL(9)       *
 *                                                                             *
 * (1) THEORETICAL CHEMISTRY GROUP - UNIVERSITA' DI TORINO - TORINO (ITALY)    *
 *      http://www.crystal.unito.it                                            *
 * (2) COMPUTATIONAL SCIENCE & ENGINEERING DEPARTMENT - CCLRC DARESBURY (UK)   *
 *     http://www.cse.clrc.ac.uk/cmg/CRYSTAL/                                  *
 * (3) UNIVERSITA' DEL PIEMONTE ORIENTALE - ALESSANDRIA (ITALY)                *
 * (4) UNIVERSIDAD AUTONOMA DEL ESTADO DE MORELOS - CUERNAVACA (MEXICO)        *
 * (5) UNIVERSITE' HENRI POINCARE' - NANCY (FRANCE)                            *
 * (6) MPI FUER FESTKOERPERFORSCHUNG - STUTTGART (GERMANY)                     *
 * (7) IMPERIAL COLLEGE - LONDON (UK)                                          *
 * (8) UNIVERSITE' PIERRE ET MARIE CURIE - PARIS (FRANCE)                      *
 * (9) UNIVERSIDAD DE BARCELONA - BARCELONA (SPAIN)                            *
 *(10) NIS - NANOSTRUCTURED INTERFACES AND SURFACES - TORINO (ITALY)           *
 *     http://www.crystal.unito.it                                             *
 *******************************************************************************
 EEEEEEEEEE STARTING  DATE 21 10 2015 TIME 11:34:18.4
 Created with astools                                                            

 CRYSTAL CALCULATION
 (INPUT ACCORDING TO THE INTERNATIONAL TABLES FOR X-RAY CRYSTALLOGRAPHY)
 CRYSTAL FAMILY                       :  TRICLINIC   
 CRYSTAL CLASS  (GROTH - 1921)        :  TRICLINIC PEDIAL                     

 SPACE GROUP (NONCENTROSYMMETRIC)     :  P 1             

 LATTICE PARAMETERS  (ANGSTROMS AND DEGREES) - CONVENTIONAL CELL
        A           B           C        ALPHA        BETA       GAMMA
    10.52960    10.48740    22.74380    90.00000    90.00000    90.00000


 NUMBER OF IRREDUCIBLE ATOMS IN THE CONVENTIONAL CELL:  168

 INPUT COORDINATES

 ATOM AT. N.              COORDINATES
   1   8     9.805200000000E-01  4.985600000000E-02  6.863000000000E-03
   2   8     5.750300000000E-02  5.104660000000E-01  9.903430000000E-01
   3   8     5.407940000000E-01  3.882500000000E-02  1.564600000000E-02
   4   8     5.114590000000E-01  4.942030000000E-01  1.786300000000E-02
   5   8     1.396700000000E-01  4.297440000000E-01  4.499910000000E-01
   6   8     1.589490000000E-01  9.575970000000E-01  4.687020000000E-01
   7   8     6.464360000000E-01  4.260200000000E-01  4.500610000000E-01
   8   8     6.220600000000E-01  8.871890000000E-01  4.455710000000E-01
   9   8     9.966330000000E-01  6.326260000000E-01  6.288220000000E-01
  10   8     5.152840000000E-01  9.081860000000E-01  5.482110000000E-01
  11   8     3.258600000000E-01  7.487100000000E-02  5.794820000000E-01
  12   8     1.827690000000E-01  8.242820000000E-01  6.604200000000E-01
  13   8     7.871130000000E-01  9.810080000000E-01  5.064090000000E-01
  14   8     8.085870000000E-01  1.724510000000E-01  5.906490000000E-01
  15   8     6.797610000000E-01  9.839580000000E-01  6.502740000000E-01
  16   8     1.512120000000E-01  1.521540000000E-01  6.607450000000E-01
  17   8     9.497980000000E-01  3.963560000000E-01  6.521330000000E-01
  18   8     1.324220000000E-01  3.963540000000E-01  5.675850000000E-01
  19   8     7.429090000000E-01  6.078420000000E-01  6.614300000000E-01
  20   8     3.816590000000E-01  4.340030000000E-01  5.247280000000E-01
  21   8     8.922460000000E-01  8.637740000000E-01  6.836330000000E-01
  22   8     1.004600000000E-02  9.677600000000E-01  5.836340000000E-01
  23   8     3.753920000000E-01  7.427170000000E-01  4.830030000000E-01
  24   8     2.785080000000E-01  5.911090000000E-01  6.314100000000E-01
  25   8     5.187900000000E-01  6.348140000000E-01  5.786160000000E-01
  26   8     7.394050000000E-01  4.641750000000E-01  5.727910000000E-01
  27   8     4.995420000000E-01  1.543030000000E-01  4.984530000000E-01
  28   8     9.794150000000E-01  1.829170000000E-01  4.911260000000E-01
  29   8     7.762140000000E-01  7.222530000000E-01  4.887340000000E-01
  30   8     3.816510000000E-01  3.131730000000E-01  6.267840000000E-01
  31   8     9.403950000000E-01  5.001260000000E-01  5.211970000000E-01
  32   8     1.611830000000E-01  6.302740000000E-01  5.226120000000E-01
  33   8     7.505940000000E-01  7.899230000000E-01  5.905830000000E-01
  34   8     5.075740000000E-01  1.377620000000E-01  6.851720000000E-01
  35   8     8.154730000000E-01  7.358340000000E-01  7.663730000000E-01
  36   8     6.472440000000E-01  6.020340000000E-01  9.571140000000E-01
  37   8     4.971650000000E-01  5.402380000000E-01  7.057740000000E-01
  38   8     4.365970000000E-01  3.548300000000E-02  7.934090000000E-01
  39   8     6.612320000000E-01  3.444250000000E-01  9.677190000000E-01
  40   8     9.352120000000E-01  3.418880000000E-01  7.803520000000E-01
  41   8     8.792920000000E-01  8.878700000000E-02  7.411700000000E-01
  42   8     3.485660000000E-01  7.674090000000E-01  7.668970000000E-01
  43   8     1.013720000000E-01  5.324350000000E-01  8.740630000000E-01
  44   8     5.212760000000E-01  8.081370000000E-01  6.724600000000E-01
  45   8     7.363540000000E-01  1.340380000000E-01  8.851580000000E-01
  46   8     7.199530000000E-01  5.221630000000E-01  7.736960000000E-01
  47   8     2.197230000000E-01  3.330110000000E-01  9.890310000000E-01
  48   8     2.277420000000E-01  7.782560000000E-01  8.916650000000E-01
  49   8     4.521040000000E-01  2.774250000000E-01  9.001070000000E-01
  50   8     3.955860000000E-01  5.819820000000E-01  9.334550000000E-01
  51   8     7.324250000000E-01  9.673600000000E-01  9.628870000000E-01
  52   8     2.002400000000E-01  3.753030000000E-01  7.154370000000E-01
  53   8     6.841510000000E-01  9.428500000000E-01  7.611850000000E-01
  54   8     1.709860000000E-01  2.870500000000E-02  9.429810000000E-01
  55   8     4.864730000000E-01  4.644000000000E-02  9.003570000000E-01
  56   8     3.244070000000E-01  2.096000000000E-03  6.882110000000E-01
  57   8     5.682000000000E-01  5.027510000000E-01  8.528220000000E-01
  58   8     3.431820000000E-01  5.448030000000E-01  8.081200000000E-01
  59   8     8.231270000000E-01  4.766390000000E-01  8.783340000000E-01
  60   8     4.060180000000E-01  2.926320000000E-01  7.736510000000E-01
  61   8     9.606830000000E-01  2.519010000000E-01  9.133960000000E-01
  62   8     9.420300000000E-02  5.899900000000E-01  7.398240000000E-01
  63   8     6.719640000000E-01  2.744080000000E-01  7.906680000000E-01
  64   8     5.921130000000E-01  7.511960000000E-01  8.430310000000E-01
  65   8     9.087920000000E-01  7.439500000000E-01  8.670820000000E-01
  66   8     6.731700000000E-01  3.437150000000E-01  6.857610000000E-01
  67   8     1.244500000000E-01  8.377620000000E-01  1.410000000000E-02
  68   8     1.972670000000E-01  3.110880000000E-01  8.550140000000E-01
  69   8     9.704160000000E-01  3.509900000000E-02  8.437870000000E-01
  70   8     8.242700000000E-02  8.809810000000E-01  7.657840000000E-01
  71   8     4.571730000000E-01  7.950090000000E-01  9.412510000000E-01
  72   8     2.091760000000E-01  1.323900000000E-01  7.762960000000E-01
  73  14     1.583080000000E-01  4.368890000000E-01  4.346400000000E-02
  74  14     3.718930000000E-01  1.902740000000E-01  1.201500000000E-02
  75  14     1.473200000000E-02  3.011500000000E-01  8.848200000000E-02
  76  14     2.723840000000E-01  6.827900000000E-02  8.448100000000E-02
  77  14     1.474670000000E-01  1.829230000000E-01  1.479140000000E-01
  78  14     3.923250000000E-01  4.363290000000E-01  1.430330000000E-01
  79  14     1.332410000000E-01  9.966200000000E-01  1.223500000000E-02
  80  14     4.908780000000E-01  6.653300000000E-01  9.858000000000E-01
  81  14     3.323600000000E-02  7.803560000000E-01  7.258000000000E-02
  82  14     3.003620000000E-01  5.835080000000E-01  7.969000000000E-02
  83  14     1.527900000000E-01  6.755440000000E-01  1.412800000000E-01
  84  14     4.010230000000E-01  9.191210000000E-01  1.329960000000E-01
  85  14     6.716420000000E-01  4.803180000000E-01  1.223700000000E-02
  86  14     8.758320000000E-01  1.766010000000E-01  3.128000000000E-02
  87  14     4.883370000000E-01  2.817590000000E-01  8.880200000000E-02
  88  14     7.746860000000E-01  5.024400000000E-02  9.747300000000E-02
  89  14     6.373700000000E-01  1.817170000000E-01  1.447910000000E-01
  90  14     8.970580000000E-01  4.260470000000E-01  1.496690000000E-01
  91  14     6.599750000000E-01  9.343810000000E-01  3.070000000000E-02
  92  14     9.348860000000E-01  6.406310000000E-01  1.028900000000E-02
  93  14     5.257450000000E-01  7.764980000000E-01  7.289200000000E-02
  94  14     8.000760000000E-01  5.589220000000E-01  8.344700000000E-02
  95  14     6.529380000000E-01  6.736020000000E-01  1.404990000000E-01
  96  14     9.182570000000E-01  9.154370000000E-01  1.376320000000E-01
  97  14     2.523400000000E-02  4.688500000000E-02  2.021510000000E-01
  98  14     2.741270000000E-01  3.115840000000E-01  2.056250000000E-01
  99  14     1.504230000000E-01  4.384500000000E-01  2.643780000000E-01
 100  14     4.037550000000E-01  1.802840000000E-01  2.611390000000E-01
 101  14     2.275600000000E-02  3.049410000000E-01  3.179490000000E-01
 102  14     2.799120000000E-01  5.793800000000E-02  3.211390000000E-01
 103  14     2.534900000000E-02  5.605270000000E-01  2.036300000000E-01
 104  14     2.704890000000E-01  8.101370000000E-01  1.989420000000E-01
 105  14     1.526720000000E-01  9.322610000000E-01  2.637160000000E-01
 106  14     3.998830000000E-01  6.854310000000E-01  2.569070000000E-01
 107  14     2.936200000000E-02  8.067400000000E-01  3.244330000000E-01
 108  14     2.783840000000E-01  5.667450000000E-01  3.222770000000E-01
 109  14     5.184670000000E-01  4.647300000000E-02  2.000490000000E-01
 110  14     7.622060000000E-01  3.043100000000E-01  2.052840000000E-01
 111  14     6.473630000000E-01  4.290510000000E-01  2.681710000000E-01
 112  14     8.974830000000E-01  1.764000000000E-01  2.590820000000E-01
 113  14     5.290040000000E-01  2.949860000000E-01  3.273670000000E-01
 114  14     7.797760000000E-01  5.327700000000E-02  3.225030000000E-01
 115  14     5.291480000000E-01  5.487390000000E-01  2.028730000000E-01
 116  14     7.792950000000E-01  8.050390000000E-01  1.986480000000E-01
 117  14     6.542210000000E-01  9.313770000000E-01  2.598570000000E-01
 118  14     9.010930000000E-01  6.871330000000E-01  2.622330000000E-01
 119  14     5.192060000000E-01  8.134360000000E-01  3.182950000000E-01
 120  14     7.882900000000E-01  5.529890000000E-01  3.210220000000E-01
 121  14     1.579740000000E-01  1.899110000000E-01  3.757460000000E-01
 122  14     4.022440000000E-01  4.358550000000E-01  3.800550000000E-01
 123  14     1.488760000000E-01  6.835110000000E-01  3.853620000000E-01
 124  14     4.038590000000E-01  9.434460000000E-01  3.836780000000E-01
 125  14     6.643520000000E-01  1.730750000000E-01  3.868510000000E-01
 126  14     9.118960000000E-01  4.319940000000E-01  3.810950000000E-01
 127  14     6.370010000000E-01  6.682340000000E-01  3.667960000000E-01
 128  14     9.166540000000E-01  9.439710000000E-01  3.844330000000E-01
 129  14     4.922800000000E-02  7.471800000000E-02  4.451940000000E-01
 130  14     2.607270000000E-01  3.225380000000E-01  4.398260000000E-01
 131  14     9.457900000000E-02  4.941190000000E-01  5.109880000000E-01
 132  14     2.599610000000E-01  8.373720000000E-01  4.426540000000E-01
 133  14     5.447350000000E-01  4.378800000000E-02  4.484590000000E-01
 134  14     7.672970000000E-01  3.267300000000E-01  4.439780000000E-01
 135  14     5.474820000000E-01  5.456850000000E-01  4.389940000000E-01
 136  14     7.837050000000E-01  8.676510000000E-01  4.558210000000E-01
 137 272     8.859210000000E-01  2.997040000000E-01  5.438920000000E-01
 138 272     5.976590000000E-01  4.847480000000E-01  6.289320000000E-01
 139 272     1.756980000000E-01  9.983260000000E-01  6.190190000000E-01
 140 272     8.283250000000E-01  9.868970000000E-01  5.878970000000E-01
 141 272     3.733870000000E-01  2.479700000000E-01  5.417950000000E-01
 142 272     3.414980000000E-01  6.036140000000E-01  5.437760000000E-01
 143 272     8.417480000000E-01  6.229660000000E-01  5.767700000000E-01
 144 272     5.832330000000E-01  7.532300000000E-01  5.140740000000E-01
 145 272     4.794890000000E-01  9.761390000000E-01  6.259180000000E-01
 146 272     1.208000000000E-01  4.682530000000E-01  6.476150000000E-01
 147 272     6.152550000000E-01  1.454100000000E-01  9.545390000000E-01
 148 272     8.161680000000E-01  3.037620000000E-01  8.492440000000E-01
 149 272     3.829550000000E-01  6.905990000000E-01  6.890270000000E-01
 150 272     3.273120000000E-01  9.355360000000E-01  9.210290000000E-01
 151 272     4.043260000000E-01  7.028290000000E-01  8.587880000000E-01
 152 272     9.779300000000E-02  3.710410000000E-01  9.243280000000E-01
 153 272     4.204000000000E-02  7.501750000000E-01  6.977300000000E-01
 154 272     5.684400000000E-02  6.994430000000E-01  9.094330000000E-01
 155 272     5.477040000000E-01  4.233690000000E-01  7.752490000000E-01
 156 272     6.749100000000E-01  1.340790000000E-01  7.211290000000E-01
 157 272     1.866300000000E-01  4.663460000000E-01  7.937920000000E-01
 158 272     8.885730000000E-01  9.110660000000E-01  7.824140000000E-01
 159 272     8.941340000000E-01  5.418600000000E-02  9.247050000000E-01
 160 272     3.541530000000E-01  1.758550000000E-01  8.418680000000E-01
 161 272     7.516450000000E-01  6.338260000000E-01  8.421870000000E-01
 162 272     1.788000000000E-02  1.687010000000E-01  7.828240000000E-01
 163 272     3.229460000000E-01  2.107110000000E-01  6.936510000000E-01
 164 272     8.170340000000E-01  4.501630000000E-01  7.064350000000E-01
 165 272     5.703320000000E-01  9.423260000000E-01  8.362220000000E-01
 166 272     5.113800000000E-01  4.359820000000E-01  9.277030000000E-01
 167 272     7.127460000000E-01  8.051640000000E-01  6.881670000000E-01
 168 272     2.725550000000E-01  9.425800000000E-01  7.688610000000E-01

 *******************************************************************************

 << INFORMATION >>: FROM NOW ON, ALL COORDINATES REFER TO THE PRIMITIVE CELL

 *******************************************************************************

 LATTICE PARAMETERS  (ANGSTROMS AND DEGREES) - PRIMITIVE CELL
       A          B          C         ALPHA     BETA     GAMMA        VOLUME
   10.52960   10.48740   22.74380    90.00000  90.00000  90.00000   2511.555236

 COORDINATES OF THE EQUIVALENT ATOMS (FRACTIONAL UNITS)

 N. ATOM EQUIV AT. N.          X                  Y                  Z

   1   1   1    8 O    -1.94800000000E-02  4.98560000000E-02  6.86300000000E-03

   2   2   1    8 O     5.75030000000E-02 -4.89534000000E-01 -9.65700000000E-03

   3   3   1    8 O    -4.59206000000E-01  3.88250000000E-02  1.56460000000E-02

   4   4   1    8 O    -4.88541000000E-01  4.94203000000E-01  1.78630000000E-02

   5   5   1    8 O     1.39670000000E-01  4.29744000000E-01  4.49991000000E-01

   6   6   1    8 O     1.58949000000E-01 -4.24030000000E-02  4.68702000000E-01

   7   7   1    8 O    -3.53564000000E-01  4.26020000000E-01  4.50061000000E-01

   8   8   1    8 O    -3.77940000000E-01 -1.12811000000E-01  4.45571000000E-01

   9   9   1    8 O    -3.36700000000E-03 -3.67374000000E-01 -3.71178000000E-01

  10  10   1    8 O    -4.84716000000E-01 -9.18140000000E-02 -4.51789000000E-01

  11  11   1    8 O     3.25860000000E-01  7.48710000000E-02 -4.20518000000E-01

  12  12   1    8 O     1.82769000000E-01 -1.75718000000E-01 -3.39580000000E-01

  13  13   1    8 O    -2.12887000000E-01 -1.89920000000E-02 -4.93591000000E-01

  14  14   1    8 O    -1.91413000000E-01  1.72451000000E-01 -4.09351000000E-01

  15  15   1    8 O    -3.20239000000E-01 -1.60420000000E-02 -3.49726000000E-01

  16  16   1    8 O     1.51212000000E-01  1.52154000000E-01 -3.39255000000E-01

  17  17   1    8 O    -5.02020000000E-02  3.96356000000E-01 -3.47867000000E-01

  18  18   1    8 O     1.32422000000E-01  3.96354000000E-01 -4.32415000000E-01

  19  19   1    8 O    -2.57091000000E-01 -3.92158000000E-01 -3.38570000000E-01

  20  20   1    8 O     3.81659000000E-01  4.34003000000E-01 -4.75272000000E-01

  21  21   1    8 O    -1.07754000000E-01 -1.36226000000E-01 -3.16367000000E-01

  22  22   1    8 O     1.00460000000E-02 -3.22400000000E-02 -4.16366000000E-01

  23  23   1    8 O     3.75392000000E-01 -2.57283000000E-01  4.83003000000E-01

  24  24   1    8 O     2.78508000000E-01 -4.08891000000E-01 -3.68590000000E-01

  25  25   1    8 O    -4.81210000000E-01 -3.65186000000E-01 -4.21384000000E-01

  26  26   1    8 O    -2.60595000000E-01  4.64175000000E-01 -4.27209000000E-01

  27  27   1    8 O     4.99542000000E-01  1.54303000000E-01  4.98453000000E-01

  28  28   1    8 O    -2.05850000000E-02  1.82917000000E-01  4.91126000000E-01

  29  29   1    8 O    -2.23786000000E-01 -2.77747000000E-01  4.88734000000E-01

  30  30   1    8 O     3.81651000000E-01  3.13173000000E-01 -3.73216000000E-01

  31  31   1    8 O    -5.96050000000E-02 -4.99874000000E-01 -4.78803000000E-01

  32  32   1    8 O     1.61183000000E-01 -3.69726000000E-01 -4.77388000000E-01

  33  33   1    8 O    -2.49406000000E-01 -2.10077000000E-01 -4.09417000000E-01

  34  34   1    8 O    -4.92426000000E-01  1.37762000000E-01 -3.14828000000E-01

  35  35   1    8 O    -1.84527000000E-01 -2.64166000000E-01 -2.33627000000E-01

  36  36   1    8 O    -3.52756000000E-01 -3.97966000000E-01 -4.28860000000E-02

  37  37   1    8 O     4.97165000000E-01 -4.59762000000E-01 -2.94226000000E-01

  38  38   1    8 O     4.36597000000E-01  3.54830000000E-02 -2.06591000000E-01

  39  39   1    8 O    -3.38768000000E-01  3.44425000000E-01 -3.22810000000E-02

  40  40   1    8 O    -6.47880000000E-02  3.41888000000E-01 -2.19648000000E-01

  41  41   1    8 O    -1.20708000000E-01  8.87870000000E-02 -2.58830000000E-01

  42  42   1    8 O     3.48566000000E-01 -2.32591000000E-01 -2.33103000000E-01

  43  43   1    8 O     1.01372000000E-01 -4.67565000000E-01 -1.25937000000E-01

  44  44   1    8 O    -4.78724000000E-01 -1.91863000000E-01 -3.27540000000E-01

  45  45   1    8 O    -2.63646000000E-01  1.34038000000E-01 -1.14842000000E-01

  46  46   1    8 O    -2.80047000000E-01 -4.77837000000E-01 -2.26304000000E-01

  47  47   1    8 O     2.19723000000E-01  3.33011000000E-01 -1.09690000000E-02

  48  48   1    8 O     2.27742000000E-01 -2.21744000000E-01 -1.08335000000E-01

  49  49   1    8 O     4.52104000000E-01  2.77425000000E-01 -9.98930000000E-02

  50  50   1    8 O     3.95586000000E-01 -4.18018000000E-01 -6.65450000000E-02

  51  51   1    8 O    -2.67575000000E-01 -3.26400000000E-02 -3.71130000000E-02

  52  52   1    8 O     2.00240000000E-01  3.75303000000E-01 -2.84563000000E-01

  53  53   1    8 O    -3.15849000000E-01 -5.71500000000E-02 -2.38815000000E-01

  54  54   1    8 O     1.70986000000E-01  2.87050000000E-02 -5.70190000000E-02

  55  55   1    8 O     4.86473000000E-01  4.64400000000E-02 -9.96430000000E-02

  56  56   1    8 O     3.24407000000E-01  2.09600000000E-03 -3.11789000000E-01

  57  57   1    8 O    -4.31800000000E-01 -4.97249000000E-01 -1.47178000000E-01

  58  58   1    8 O     3.43182000000E-01 -4.55197000000E-01 -1.91880000000E-01

  59  59   1    8 O    -1.76873000000E-01  4.76639000000E-01 -1.21666000000E-01

  60  60   1    8 O     4.06018000000E-01  2.92632000000E-01 -2.26349000000E-01

  61  61   1    8 O    -3.93170000000E-02  2.51901000000E-01 -8.66040000000E-02

  62  62   1    8 O     9.42030000000E-02 -4.10010000000E-01 -2.60176000000E-01

  63  63   1    8 O    -3.28036000000E-01  2.74408000000E-01 -2.09332000000E-01

  64  64   1    8 O    -4.07887000000E-01 -2.48804000000E-01 -1.56969000000E-01

  65  65   1    8 O    -9.12080000000E-02 -2.56050000000E-01 -1.32918000000E-01

  66  66   1    8 O    -3.26830000000E-01  3.43715000000E-01 -3.14239000000E-01

  67  67   1    8 O     1.24450000000E-01 -1.62238000000E-01  1.41000000000E-02

  68  68   1    8 O     1.97267000000E-01  3.11088000000E-01 -1.44986000000E-01

  69  69   1    8 O    -2.95840000000E-02  3.50990000000E-02 -1.56213000000E-01

  70  70   1    8 O     8.24270000000E-02 -1.19019000000E-01 -2.34216000000E-01

  71  71   1    8 O     4.57173000000E-01 -2.04991000000E-01 -5.87490000000E-02

  72  72   1    8 O     2.09176000000E-01  1.32390000000E-01 -2.23704000000E-01

  73  73   1   14 SI    1.58308000000E-01  4.36889000000E-01  4.34640000000E-02

  74  74   1   14 SI    3.71893000000E-01  1.90274000000E-01  1.20150000000E-02

  75  75   1   14 SI    1.47320000000E-02  3.01150000000E-01  8.84820000000E-02

  76  76   1   14 SI    2.72384000000E-01  6.82790000000E-02  8.44810000000E-02

  77  77   1   14 SI    1.47467000000E-01  1.82923000000E-01  1.47914000000E-01

  78  78   1   14 SI    3.92325000000E-01  4.36329000000E-01  1.43033000000E-01

  79  79   1   14 SI    1.33241000000E-01 -3.38000000000E-03  1.22350000000E-02

  80  80   1   14 SI    4.90878000000E-01 -3.34670000000E-01 -1.42000000000E-02

  81  81   1   14 SI    3.32360000000E-02 -2.19644000000E-01  7.25800000000E-02

  82  82   1   14 SI    3.00362000000E-01 -4.16492000000E-01  7.96900000000E-02

  83  83   1   14 SI    1.52790000000E-01 -3.24456000000E-01  1.41280000000E-01

  84  84   1   14 SI    4.01023000000E-01 -8.08790000000E-02  1.32996000000E-01

  85  85   1   14 SI   -3.28358000000E-01  4.80318000000E-01  1.22370000000E-02

  86  86   1   14 SI   -1.24168000000E-01  1.76601000000E-01  3.12800000000E-02

  87  87   1   14 SI    4.88337000000E-01  2.81759000000E-01  8.88020000000E-02

  88  88   1   14 SI   -2.25314000000E-01  5.02440000000E-02  9.74730000000E-02

  89  89   1   14 SI   -3.62630000000E-01  1.81717000000E-01  1.44791000000E-01

  90  90   1   14 SI   -1.02942000000E-01  4.26047000000E-01  1.49669000000E-01

  91  91   1   14 SI   -3.40025000000E-01 -6.56190000000E-02  3.07000000000E-02

  92  92   1   14 SI   -6.51140000000E-02 -3.59369000000E-01  1.02890000000E-02

  93  93   1   14 SI   -4.74255000000E-01 -2.23502000000E-01  7.28920000000E-02

  94  94   1   14 SI   -1.99924000000E-01 -4.41078000000E-01  8.34470000000E-02

  95  95   1   14 SI   -3.47062000000E-01 -3.26398000000E-01  1.40499000000E-01

  96  96   1   14 SI   -8.17430000000E-02 -8.45630000000E-02  1.37632000000E-01

  97  97   1   14 SI    2.52340000000E-02  4.68850000000E-02  2.02151000000E-01

  98  98   1   14 SI    2.74127000000E-01  3.11584000000E-01  2.05625000000E-01

  99  99   1   14 SI    1.50423000000E-01  4.38450000000E-01  2.64378000000E-01

 100 100   1   14 SI    4.03755000000E-01  1.80284000000E-01  2.61139000000E-01

 101 101   1   14 SI    2.27560000000E-02  3.04941000000E-01  3.17949000000E-01

 102 102   1   14 SI    2.79912000000E-01  5.79380000000E-02  3.21139000000E-01

 103 103   1   14 SI    2.53490000000E-02 -4.39473000000E-01  2.03630000000E-01

 104 104   1   14 SI    2.70489000000E-01 -1.89863000000E-01  1.98942000000E-01

 105 105   1   14 SI    1.52672000000E-01 -6.77390000000E-02  2.63716000000E-01

 106 106   1   14 SI    3.99883000000E-01 -3.14569000000E-01  2.56907000000E-01

 107 107   1   14 SI    2.93620000000E-02 -1.93260000000E-01  3.24433000000E-01

 108 108   1   14 SI    2.78384000000E-01 -4.33255000000E-01  3.22277000000E-01

 109 109   1   14 SI   -4.81533000000E-01  4.64730000000E-02  2.00049000000E-01

 110 110   1   14 SI   -2.37794000000E-01  3.04310000000E-01  2.05284000000E-01

 111 111   1   14 SI   -3.52637000000E-01  4.29051000000E-01  2.68171000000E-01

 112 112   1   14 SI   -1.02517000000E-01  1.76400000000E-01  2.59082000000E-01

 113 113   1   14 SI   -4.70996000000E-01  2.94986000000E-01  3.27367000000E-01

 114 114   1   14 SI   -2.20224000000E-01  5.32770000000E-02  3.22503000000E-01

 115 115   1   14 SI   -4.70852000000E-01 -4.51261000000E-01  2.02873000000E-01

 116 116   1   14 SI   -2.20705000000E-01 -1.94961000000E-01  1.98648000000E-01

 117 117   1   14 SI   -3.45779000000E-01 -6.86230000000E-02  2.59857000000E-01

 118 118   1   14 SI   -9.89070000000E-02 -3.12867000000E-01  2.62233000000E-01

 119 119   1   14 SI   -4.80794000000E-01 -1.86564000000E-01  3.18295000000E-01

 120 120   1   14 SI   -2.11710000000E-01 -4.47011000000E-01  3.21022000000E-01

 121 121   1   14 SI    1.57974000000E-01  1.89911000000E-01  3.75746000000E-01

 122 122   1   14 SI    4.02244000000E-01  4.35855000000E-01  3.80055000000E-01

 123 123   1   14 SI    1.48876000000E-01 -3.16489000000E-01  3.85362000000E-01

 124 124   1   14 SI    4.03859000000E-01 -5.65540000000E-02  3.83678000000E-01

 125 125   1   14 SI   -3.35648000000E-01  1.73075000000E-01  3.86851000000E-01

 126 126   1   14 SI   -8.81040000000E-02  4.31994000000E-01  3.81095000000E-01

 127 127   1   14 SI   -3.62999000000E-01 -3.31766000000E-01  3.66796000000E-01

 128 128   1   14 SI   -8.33460000000E-02 -5.60290000000E-02  3.84433000000E-01

 129 129   1   14 SI    4.92280000000E-02  7.47180000000E-02  4.45194000000E-01

 130 130   1   14 SI    2.60727000000E-01  3.22538000000E-01  4.39826000000E-01

 131 131   1   14 SI    9.45790000000E-02  4.94119000000E-01 -4.89012000000E-01

 132 132   1   14 SI    2.59961000000E-01 -1.62628000000E-01  4.42654000000E-01

 133 133   1   14 SI   -4.55265000000E-01  4.37880000000E-02  4.48459000000E-01

 134 134   1   14 SI   -2.32703000000E-01  3.26730000000E-01  4.43978000000E-01

 135 135   1   14 SI   -4.52518000000E-01 -4.54315000000E-01  4.38994000000E-01

 136 136   1   14 SI   -2.16295000000E-01 -1.32349000000E-01  4.55821000000E-01

 137 137   1  272 HF   -1.14079000000E-01  2.99704000000E-01 -4.56108000000E-01

 138 138   1  272 HF   -4.02341000000E-01  4.84748000000E-01 -3.71068000000E-01

 139 139   1  272 HF    1.75698000000E-01 -1.67400000000E-03 -3.80981000000E-01

 140 140   1  272 HF   -1.71675000000E-01 -1.31030000000E-02 -4.12103000000E-01

 141 141   1  272 HF    3.73387000000E-01  2.47970000000E-01 -4.58205000000E-01

 142 142   1  272 HF    3.41498000000E-01 -3.96386000000E-01 -4.56224000000E-01

 143 143   1  272 HF   -1.58252000000E-01 -3.77034000000E-01 -4.23230000000E-01

 144 144   1  272 HF   -4.16767000000E-01 -2.46770000000E-01 -4.85926000000E-01

 145 145   1  272 HF    4.79489000000E-01 -2.38610000000E-02 -3.74082000000E-01

 146 146   1  272 HF    1.20800000000E-01  4.68253000000E-01 -3.52385000000E-01

 147 147   1  272 HF   -3.84745000000E-01  1.45410000000E-01 -4.54610000000E-02

 148 148   1  272 HF   -1.83832000000E-01  3.03762000000E-01 -1.50756000000E-01

 149 149   1  272 HF    3.82955000000E-01 -3.09401000000E-01 -3.10973000000E-01

 150 150   1  272 HF    3.27312000000E-01 -6.44640000000E-02 -7.89710000000E-02

 151 151   1  272 HF    4.04326000000E-01 -2.97171000000E-01 -1.41212000000E-01

 152 152   1  272 HF    9.77930000000E-02  3.71041000000E-01 -7.56720000000E-02

 153 153   1  272 HF    4.20400000000E-02 -2.49825000000E-01 -3.02270000000E-01

 154 154   1  272 HF    5.68440000000E-02 -3.00557000000E-01 -9.05670000000E-02

 155 155   1  272 HF   -4.52296000000E-01  4.23369000000E-01 -2.24751000000E-01

 156 156   1  272 HF   -3.25090000000E-01  1.34079000000E-01 -2.78871000000E-01

 157 157   1  272 HF    1.86630000000E-01  4.66346000000E-01 -2.06208000000E-01

 158 158   1  272 HF   -1.11427000000E-01 -8.89340000000E-02 -2.17586000000E-01

 159 159   1  272 HF   -1.05866000000E-01  5.41860000000E-02 -7.52950000000E-02

 160 160   1  272 HF    3.54153000000E-01  1.75855000000E-01 -1.58132000000E-01

 161 161   1  272 HF   -2.48355000000E-01 -3.66174000000E-01 -1.57813000000E-01

 162 162   1  272 HF    1.78800000000E-02  1.68701000000E-01 -2.17176000000E-01

 163 163   1  272 HF    3.22946000000E-01  2.10711000000E-01 -3.06349000000E-01

 164 164   1  272 HF   -1.82966000000E-01  4.50163000000E-01 -2.93565000000E-01

 165 165   1  272 HF   -4.29668000000E-01 -5.76740000000E-02 -1.63778000000E-01

 166 166   1  272 HF   -4.88620000000E-01  4.35982000000E-01 -7.22970000000E-02

 167 167   1  272 HF   -2.87254000000E-01 -1.94836000000E-01 -3.11833000000E-01

 168 168   1  272 HF    2.72555000000E-01 -5.74200000000E-02 -2.31139000000E-01

 NUMBER OF SYMMETRY OPERATORS         :    1
 *******************************************************************************
 * GEOMETRY EDITING - INPUT COORDINATES ARE GIVEN IN ANGSTROM         
 *******************************************************************************
 INFORMATION **** NEIGHBOR **** neighbors in geometry analysis          15

 GCALCO - MAX INDICES DIRECT LATTICE VECTOR    19    19     8
 NO.OF VECTORS CREATED 6999 STARS 1064 RMAX   305.32186 BOHR

 GEOMETRY FOR WAVE FUNCTION - DIMENSIONALITY OF THE SYSTEM    3
 (NON PERIODIC DIRECTION: LATTICE PARAMETER FORMALLY SET TO 500)
 *******************************************************************************
 LATTICE PARAMETERS (ANGSTROMS AND DEGREES) - BOHR = 0.5291772083 ANGSTROM
 PRIMITIVE CELL - CENTRING CODE 1/0 VOLUME=  2511.555236 - DENSITY  5.752 g/cm^3
         A              B              C           ALPHA      BETA       GAMMA 
    10.52960000    10.48740000    22.74380000    90.000000  90.000000  90.000000
 *******************************************************************************
 ATOMS IN THE ASYMMETRIC UNIT  168 - ATOMS IN THE UNIT CELL:  168
     ATOM              X/A                 Y/B                 Z/C    
 *******************************************************************************
   1 T   8 O    -1.948000000000E-02  4.985600000000E-02  6.863000000000E-03
   2 T   8 O     5.750300000000E-02 -4.895340000000E-01 -9.657000000000E-03
   3 T   8 O    -4.592060000000E-01  3.882500000000E-02  1.564600000000E-02
   4 T   8 O    -4.885410000000E-01  4.942030000000E-01  1.786300000000E-02
   5 T   8 O     1.396700000000E-01  4.297440000000E-01  4.499910000000E-01
   6 T   8 O     1.589490000000E-01 -4.240300000000E-02  4.687020000000E-01
   7 T   8 O    -3.535640000000E-01  4.260200000000E-01  4.500610000000E-01
   8 T   8 O    -3.779400000000E-01 -1.128110000000E-01  4.455710000000E-01
   9 T   8 O    -3.367000000000E-03 -3.673740000000E-01 -3.711780000000E-01
  10 T   8 O    -4.847160000000E-01 -9.181400000000E-02 -4.517890000000E-01
  11 T   8 O     3.258600000000E-01  7.487100000000E-02 -4.205180000000E-01
  12 T   8 O     1.827690000000E-01 -1.757180000000E-01 -3.395800000000E-01
  13 T   8 O    -2.128870000000E-01 -1.899200000000E-02 -4.935910000000E-01
  14 T   8 O    -1.914130000000E-01  1.724510000000E-01 -4.093510000000E-01
  15 T   8 O    -3.202390000000E-01 -1.604200000000E-02 -3.497260000000E-01
  16 T   8 O     1.512120000000E-01  1.521540000000E-01 -3.392550000000E-01
  17 T   8 O    -5.020200000000E-02  3.963560000000E-01 -3.478670000000E-01
  18 T   8 O     1.324220000000E-01  3.963540000000E-01 -4.324150000000E-01
  19 T   8 O    -2.570910000000E-01 -3.921580000000E-01 -3.385700000000E-01
  20 T   8 O     3.816590000000E-01  4.340030000000E-01 -4.752720000000E-01
  21 T   8 O    -1.077540000000E-01 -1.362260000000E-01 -3.163670000000E-01
  22 T   8 O     1.004600000000E-02 -3.224000000000E-02 -4.163660000000E-01
  23 T   8 O     3.753920000000E-01 -2.572830000000E-01  4.830030000000E-01
  24 T   8 O     2.785080000000E-01 -4.088910000000E-01 -3.685900000000E-01
  25 T   8 O    -4.812100000000E-01 -3.651860000000E-01 -4.213840000000E-01
  26 T   8 O    -2.605950000000E-01  4.641750000000E-01 -4.272090000000E-01
  27 T   8 O     4.995420000000E-01  1.543030000000E-01  4.984530000000E-01
  28 T   8 O    -2.058500000000E-02  1.829170000000E-01  4.911260000000E-01
  29 T   8 O    -2.237860000000E-01 -2.777470000000E-01  4.887340000000E-01
  30 T   8 O     3.816510000000E-01  3.131730000000E-01 -3.732160000000E-01
  31 T   8 O    -5.960500000000E-02 -4.998740000000E-01 -4.788030000000E-01
  32 T   8 O     1.611830000000E-01 -3.697260000000E-01 -4.773880000000E-01
  33 T   8 O    -2.494060000000E-01 -2.100770000000E-01 -4.094170000000E-01
  34 T   8 O    -4.924260000000E-01  1.377620000000E-01 -3.148280000000E-01
  35 T   8 O    -1.845270000000E-01 -2.641660000000E-01 -2.336270000000E-01
  36 T   8 O    -3.527560000000E-01 -3.979660000000E-01 -4.288600000000E-02
  37 T   8 O     4.971650000000E-01 -4.597620000000E-01 -2.942260000000E-01
  38 T   8 O     4.365970000000E-01  3.548300000000E-02 -2.065910000000E-01
  39 T   8 O    -3.387680000000E-01  3.444250000000E-01 -3.228100000000E-02
  40 T   8 O    -6.478800000000E-02  3.418880000000E-01 -2.196480000000E-01
  41 T   8 O    -1.207080000000E-01  8.878700000000E-02 -2.588300000000E-01
  42 T   8 O     3.485660000000E-01 -2.325910000000E-01 -2.331030000000E-01
  43 T   8 O     1.013720000000E-01 -4.675650000000E-01 -1.259370000000E-01
  44 T   8 O    -4.787240000000E-01 -1.918630000000E-01 -3.275400000000E-01
  45 T   8 O    -2.636460000000E-01  1.340380000000E-01 -1.148420000000E-01
  46 T   8 O    -2.800470000000E-01 -4.778370000000E-01 -2.263040000000E-01
  47 T   8 O     2.197230000000E-01  3.330110000000E-01 -1.096900000000E-02
  48 T   8 O     2.277420000000E-01 -2.217440000000E-01 -1.083350000000E-01
  49 T   8 O     4.521040000000E-01  2.774250000000E-01 -9.989300000000E-02
  50 T   8 O     3.955860000000E-01 -4.180180000000E-01 -6.654500000000E-02
  51 T   8 O    -2.675750000000E-01 -3.264000000000E-02 -3.711300000000E-02
  52 T   8 O     2.002400000000E-01  3.753030000000E-01 -2.845630000000E-01
  53 T   8 O    -3.158490000000E-01 -5.715000000000E-02 -2.388150000000E-01
  54 T   8 O     1.709860000000E-01  2.870500000000E-02 -5.701900000000E-02
  55 T   8 O     4.864730000000E-01  4.644000000000E-02 -9.964300000000E-02
  56 T   8 O     3.244070000000E-01  2.096000000000E-03 -3.117890000000E-01
  57 T   8 O    -4.318000000000E-01 -4.972490000000E-01 -1.471780000000E-01
  58 T   8 O     3.431820000000E-01 -4.551970000000E-01 -1.918800000000E-01
  59 T   8 O    -1.768730000000E-01  4.766390000000E-01 -1.216660000000E-01
  60 T   8 O     4.060180000000E-01  2.926320000000E-01 -2.263490000000E-01
  61 T   8 O    -3.931700000000E-02  2.519010000000E-01 -8.660400000000E-02
  62 T   8 O     9.420300000000E-02 -4.100100000000E-01 -2.601760000000E-01
  63 T   8 O    -3.280360000000E-01  2.744080000000E-01 -2.093320000000E-01
  64 T   8 O    -4.078870000000E-01 -2.488040000000E-01 -1.569690000000E-01
  65 T   8 O    -9.120800000000E-02 -2.560500000000E-01 -1.329180000000E-01
  66 T   8 O    -3.268300000000E-01  3.437150000000E-01 -3.142390000000E-01
  67 T   8 O     1.244500000000E-01 -1.622380000000E-01  1.410000000000E-02
  68 T   8 O     1.972670000000E-01  3.110880000000E-01 -1.449860000000E-01
  69 T   8 O    -2.958400000000E-02  3.509900000000E-02 -1.562130000000E-01
  70 T   8 O     8.242700000000E-02 -1.190190000000E-01 -2.342160000000E-01
  71 T   8 O     4.571730000000E-01 -2.049910000000E-01 -5.874900000000E-02
  72 T   8 O     2.091760000000E-01  1.323900000000E-01 -2.237040000000E-01
  73 T  14 SI    1.583080000000E-01  4.368890000000E-01  4.346400000000E-02
  74 T  14 SI    3.718930000000E-01  1.902740000000E-01  1.201500000000E-02
  75 T  14 SI    1.473200000000E-02  3.011500000000E-01  8.848200000000E-02
  76 T  14 SI    2.723840000000E-01  6.827900000000E-02  8.448100000000E-02
  77 T  14 SI    1.474670000000E-01  1.829230000000E-01  1.479140000000E-01
  78 T  14 SI    3.923250000000E-01  4.363290000000E-01  1.430330000000E-01
  79 T  14 SI    1.332410000000E-01 -3.380000000000E-03  1.223500000000E-02
  80 T  14 SI    4.908780000000E-01 -3.346700000000E-01 -1.420000000000E-02
  81 T  14 SI    3.323600000000E-02 -2.196440000000E-01  7.258000000000E-02
  82 T  14 SI    3.003620000000E-01 -4.164920000000E-01  7.969000000000E-02
  83 T  14 SI    1.527900000000E-01 -3.244560000000E-01  1.412800000000E-01
  84 T  14 SI    4.010230000000E-01 -8.087900000000E-02  1.329960000000E-01
  85 T  14 SI   -3.283580000000E-01  4.803180000000E-01  1.223700000000E-02
  86 T  14 SI   -1.241680000000E-01  1.766010000000E-01  3.128000000000E-02
  87 T  14 SI    4.883370000000E-01  2.817590000000E-01  8.880200000000E-02
  88 T  14 SI   -2.253140000000E-01  5.024400000000E-02  9.747300000000E-02
  89 T  14 SI   -3.626300000000E-01  1.817170000000E-01  1.447910000000E-01
  90 T  14 SI   -1.029420000000E-01  4.260470000000E-01  1.496690000000E-01
  91 T  14 SI   -3.400250000000E-01 -6.561900000000E-02  3.070000000000E-02
  92 T  14 SI   -6.511400000000E-02 -3.593690000000E-01  1.028900000000E-02
  93 T  14 SI   -4.742550000000E-01 -2.235020000000E-01  7.289200000000E-02
  94 T  14 SI   -1.999240000000E-01 -4.410780000000E-01  8.344700000000E-02
  95 T  14 SI   -3.470620000000E-01 -3.263980000000E-01  1.404990000000E-01
  96 T  14 SI   -8.174300000000E-02 -8.456300000000E-02  1.376320000000E-01
  97 T  14 SI    2.523400000000E-02  4.688500000000E-02  2.021510000000E-01
  98 T  14 SI    2.741270000000E-01  3.115840000000E-01  2.056250000000E-01
  99 T  14 SI    1.504230000000E-01  4.384500000000E-01  2.643780000000E-01
 100 T  14 SI    4.037550000000E-01  1.802840000000E-01  2.611390000000E-01
 101 T  14 SI    2.275600000000E-02  3.049410000000E-01  3.179490000000E-01
 102 T  14 SI    2.799120000000E-01  5.793800000000E-02  3.211390000000E-01
 103 T  14 SI    2.534900000000E-02 -4.394730000000E-01  2.036300000000E-01
 104 T  14 SI    2.704890000000E-01 -1.898630000000E-01  1.989420000000E-01
 105 T  14 SI    1.526720000000E-01 -6.773900000000E-02  2.637160000000E-01
 106 T  14 SI    3.998830000000E-01 -3.145690000000E-01  2.569070000000E-01
 107 T  14 SI    2.936200000000E-02 -1.932600000000E-01  3.244330000000E-01
 108 T  14 SI    2.783840000000E-01 -4.332550000000E-01  3.222770000000E-01
 109 T  14 SI   -4.815330000000E-01  4.647300000000E-02  2.000490000000E-01
 110 T  14 SI   -2.377940000000E-01  3.043100000000E-01  2.052840000000E-01
 111 T  14 SI   -3.526370000000E-01  4.290510000000E-01  2.681710000000E-01
 112 T  14 SI   -1.025170000000E-01  1.764000000000E-01  2.590820000000E-01
 113 T  14 SI   -4.709960000000E-01  2.949860000000E-01  3.273670000000E-01
 114 T  14 SI   -2.202240000000E-01  5.327700000000E-02  3.225030000000E-01
 115 T  14 SI   -4.708520000000E-01 -4.512610000000E-01  2.028730000000E-01
 116 T  14 SI   -2.207050000000E-01 -1.949610000000E-01  1.986480000000E-01
 117 T  14 SI   -3.457790000000E-01 -6.862300000000E-02  2.598570000000E-01
 118 T  14 SI   -9.890700000000E-02 -3.128670000000E-01  2.622330000000E-01
 119 T  14 SI   -4.807940000000E-01 -1.865640000000E-01  3.182950000000E-01
 120 T  14 SI   -2.117100000000E-01 -4.470110000000E-01  3.210220000000E-01
 121 T  14 SI    1.579740000000E-01  1.899110000000E-01  3.757460000000E-01
 122 T  14 SI    4.022440000000E-01  4.358550000000E-01  3.800550000000E-01
 123 T  14 SI    1.488760000000E-01 -3.164890000000E-01  3.853620000000E-01
 124 T  14 SI    4.038590000000E-01 -5.655400000000E-02  3.836780000000E-01
 125 T  14 SI   -3.356480000000E-01  1.730750000000E-01  3.868510000000E-01
 126 T  14 SI   -8.810400000000E-02  4.319940000000E-01  3.810950000000E-01
 127 T  14 SI   -3.629990000000E-01 -3.317660000000E-01  3.667960000000E-01
 128 T  14 SI   -8.334600000000E-02 -5.602900000000E-02  3.844330000000E-01
 129 T  14 SI    4.922800000000E-02  7.471800000000E-02  4.451940000000E-01
 130 T  14 SI    2.607270000000E-01  3.225380000000E-01  4.398260000000E-01
 131 T  14 SI    9.457900000000E-02  4.941190000000E-01 -4.890120000000E-01
 132 T  14 SI    2.599610000000E-01 -1.626280000000E-01  4.426540000000E-01
 133 T  14 SI   -4.552650000000E-01  4.378800000000E-02  4.484590000000E-01
 134 T  14 SI   -2.327030000000E-01  3.267300000000E-01  4.439780000000E-01
 135 T  14 SI   -4.525180000000E-01 -4.543150000000E-01  4.389940000000E-01
 136 T  14 SI   -2.162950000000E-01 -1.323490000000E-01  4.558210000000E-01
 137 T 272 HF   -1.140790000000E-01  2.997040000000E-01 -4.561080000000E-01
 138 T 272 HF   -4.023410000000E-01  4.847480000000E-01 -3.710680000000E-01
 139 T 272 HF    1.756980000000E-01 -1.674000000000E-03 -3.809810000000E-01
 140 T 272 HF   -1.716750000000E-01 -1.310300000000E-02 -4.121030000000E-01
 141 T 272 HF    3.733870000000E-01  2.479700000000E-01 -4.582050000000E-01
 142 T 272 HF    3.414980000000E-01 -3.963860000000E-01 -4.562240000000E-01
 143 T 272 HF   -1.582520000000E-01 -3.770340000000E-01 -4.232300000000E-01
 144 T 272 HF   -4.167670000000E-01 -2.467700000000E-01 -4.859260000000E-01
 145 T 272 HF    4.794890000000E-01 -2.386100000000E-02 -3.740820000000E-01
 146 T 272 HF    1.208000000000E-01  4.682530000000E-01 -3.523850000000E-01
 147 T 272 HF   -3.847450000000E-01  1.454100000000E-01 -4.546100000000E-02
 148 T 272 HF   -1.838320000000E-01  3.037620000000E-01 -1.507560000000E-01
 149 T 272 HF    3.829550000000E-01 -3.094010000000E-01 -3.109730000000E-01
 150 T 272 HF    3.273120000000E-01 -6.446400000000E-02 -7.897100000000E-02
 151 T 272 HF    4.043260000000E-01 -2.971710000000E-01 -1.412120000000E-01
 152 T 272 HF    9.779300000000E-02  3.710410000000E-01 -7.567200000000E-02
 153 T 272 HF    4.204000000000E-02 -2.498250000000E-01 -3.022700000000E-01
 154 T 272 HF    5.684400000000E-02 -3.005570000000E-01 -9.056700000000E-02
 155 T 272 HF   -4.522960000000E-01  4.233690000000E-01 -2.247510000000E-01
 156 T 272 HF   -3.250900000000E-01  1.340790000000E-01 -2.788710000000E-01
 157 T 272 HF    1.866300000000E-01  4.663460000000E-01 -2.062080000000E-01
 158 T 272 HF   -1.114270000000E-01 -8.893400000000E-02 -2.175860000000E-01
 159 T 272 HF   -1.058660000000E-01  5.418600000000E-02 -7.529500000000E-02
 160 T 272 HF    3.541530000000E-01  1.758550000000E-01 -1.581320000000E-01
 161 T 272 HF   -2.483550000000E-01 -3.661740000000E-01 -1.578130000000E-01
 162 T 272 HF    1.788000000000E-02  1.687010000000E-01 -2.171760000000E-01
 163 T 272 HF    3.229460000000E-01  2.107110000000E-01 -3.063490000000E-01
 164 T 272 HF   -1.829660000000E-01  4.501630000000E-01 -2.935650000000E-01
 165 T 272 HF   -4.296680000000E-01 -5.767400000000E-02 -1.637780000000E-01
 166 T 272 HF   -4.886200000000E-01  4.359820000000E-01 -7.229700000000E-02
 167 T 272 HF   -2.872540000000E-01 -1.948360000000E-01 -3.118330000000E-01
 168 T 272 HF    2.725550000000E-01 -5.742000000000E-02 -2.311390000000E-01

 T = ATOM BELONGING TO THE ASYMMETRIC UNIT

 ****   1 SYMMOPS - TRANSLATORS IN FRACTIONAL UNITS
  V INV                   ROTATION MATRICES                       TRANSLATOR
  1  1  1.00  0.00  0.00  0.00  1.00  0.00  0.00  0.00  1.00    0.00  0.00  0.00

 DIRECT LATTICE VECTORS CARTESIAN COMPONENTS (ANGSTROM)
          X                    Y                    Z
   0.105296000000E+02   0.644752046815E-15   0.000000000000E+00
   0.000000000000E+00   0.104874000000E+02   0.000000000000E+00
   0.139265609352E-14   0.139265609352E-14   0.227438000000E+02


 CARTESIAN COORDINATES - PRIMITIVE CELL
 *******************************************************************************
 *      ATOM          X(ANGSTROM)         Y(ANGSTROM)         Z(ANGSTROM)
 *******************************************************************************
   1     8 O    -2.051166080000E-01  5.228598144000E-01  1.560906994000E-01
   2     8 O     6.054835888000E-01 -5.133938871600E+00 -2.196368766000E-01
   3     8 O    -4.835255497600E+00  4.071733050000E-01  3.558494948000E-01
   4     8 O    -5.144141313600E+00  5.182904542200E+00  4.062724994000E-01
   5     8 O     1.470669232000E+00  4.506897225600E+00  1.023450530580E+01
   6     8 O     1.673669390400E+00 -4.446972222000E-01  1.066006454760E+01
   7     8 O    -3.722887494400E+00  4.467842148000E+00  1.023609737180E+01
   8     8 O    -3.979557024000E+00 -1.183094081400E+00  1.013397770980E+01
   9     8 O    -3.545316320000E-02 -3.852798087600E+00 -8.441998196400E+00
  10     8 O    -5.103865593600E+00 -9.628901436000E-01 -1.027539865820E+01
  11     8 O     3.431175456000E+00  7.852021254000E-01 -9.564177288400E+00
  12     8 O     1.924484462400E+00 -1.842824953200E+00 -7.723339604000E+00
  13     8 O    -2.241614955200E+00 -1.991767008000E-01 -1.122613498580E+01
  14     8 O    -2.015502324800E+00  1.808562617400E+00 -9.310197273800E+00
  15     8 O    -3.371988574400E+00 -1.682388708000E-01 -7.954098198800E+00
  16     8 O     1.592201875200E+00  1.595699859600E+00 -7.715947869000E+00
  17     8 O    -5.286069792000E-01  4.156743914400E+00 -7.911817474600E+00
  18     8 O     1.394350691200E+00  4.156722939600E+00 -9.834760277000E+00
  19     8 O    -2.707065393600E+00 -4.112717809200E+00 -7.700368366000E+00
  20     8 O     4.018716606400E+00  4.551563062200E+00 -1.080949131360E+01
  21     8 O    -1.134606518400E+00 -1.428656552400E+00 -7.195387774600E+00
  22     8 O     1.057803616000E-01 -3.381137760000E-01 -9.469745030800E+00
  23     8 O     3.952727603200E+00 -2.698229734200E+00  1.098532363140E+01
  24     8 O     2.932577836800E+00 -4.288203473400E+00 -8.383137242000E+00
  25     8 O    -5.066948816000E+00 -3.829851656400E+00 -9.583873419200E+00
  26     8 O    -2.743961112000E+00  4.867988895000E+00 -9.716356054200E+00
  27     8 O     5.259977443200E+00  1.618237282200E+00  1.133671534140E+01
  28     8 O    -2.167518160000E-01  1.918323745800E+00  1.117007151880E+01
  29     8 O    -2.356377065600E+00 -2.912843887800E+00  1.111566834920E+01
  30     8 O     4.018632369600E+00  3.284370520200E+00 -8.488350060800E+00
  31     8 O    -6.276168080000E-01 -5.242378587600E+00 -1.088979967140E+01
  32     8 O     1.697192516800E+00 -3.877464452400E+00 -1.085761719440E+01
  33     8 O    -2.626145417600E+00 -2.203161529800E+00 -9.311698364600E+00
  34     8 O    -5.185048809600E+00  1.444765198800E+00 -7.160385066400E+00
  35     8 O    -1.942995499200E+00 -2.770414508400E+00 -5.313565762600E+00
  36     8 O    -3.714379577600E+00 -4.173628628400E+00 -9.753906068000E-01
  37     8 O     5.234948584000E+00 -4.821707998800E+00 -6.691817298800E+00
  38     8 O     4.597191771200E+00  3.721244142000E-01 -4.698664385800E+00
  39     8 O    -3.567091532800E+00  3.612122745000E+00 -7.341926078000E-01
  40     8 O    -6.821917248000E-01  3.585516211200E+00 -4.995630182400E+00
  41     8 O    -1.271006956800E+00  9.311447838000E-01 -5.886777754000E+00
  42     8 O     3.670260553600E+00 -2.439274853400E+00 -5.301648011400E+00
  43     8 O     1.067406611200E+00 -4.903541181000E+00 -2.864285940600E+00
  44     8 O    -5.040772230400E+00 -2.012144026200E+00 -7.449504252000E+00
  45     8 O    -2.776086921600E+00  1.405710121200E+00 -2.611943479600E+00
  46     8 O    -2.948782891200E+00 -5.011267753800E+00 -5.147012915200E+00
  47     8 O     2.313595300800E+00  3.492419561400E+00 -2.494767422000E-01
  48     8 O     2.398032163200E+00 -2.325518025600E+00 -2.463949573000E+00
  49     8 O     4.760474278400E+00  2.909466945000E+00 -2.271946413400E+00
  50     8 O     4.165362345600E+00 -4.383921973200E+00 -1.513486171000E+00
  51     8 O    -2.817457720000E+00 -3.423087360000E-01 -8.440906494000E-01
  52     8 O     2.108447104000E+00  3.935952682200E+00 -6.472043959400E+00
  53     8 O    -3.325763630400E+00 -5.993549100000E-01 -5.431560597000E+00
  54     8 O     1.800414185600E+00  3.010408170000E-01 -1.296828732200E+00
  55     8 O     5.122366100800E+00  4.870348560000E-01 -2.266260463400E+00
  56     8 O     3.415875947200E+00  2.198159040000E-02 -7.091266658200E+00
  57     8 O    -4.546681280000E+00 -5.214849162600E+00 -3.347386996400E+00
  58     8 O     3.613569187200E+00 -4.773833017800E+00 -4.364080344000E+00
  59     8 O    -1.862401940800E+00  4.998703848600E+00 -2.767147170800E+00
  60     8 O     4.275207132800E+00  3.068948836800E+00 -5.148036386200E+00
  61     8 O    -4.139922832000E-01  2.641786547400E+00 -1.969704055200E+00
  62     8 O     9.919199088000E-01 -4.299938874000E+00 -5.917390908800E+00
  63     8 O    -3.454087865600E+00  2.877826459200E+00 -4.761005141600E+00
  64     8 O    -4.294886955200E+00 -2.609307069600E+00 -3.570071542200E+00
  65     8 O    -9.603837568000E-01 -2.685298770000E+00 -3.023060408400E+00
  66     8 O    -3.441389168000E+00  3.604676691000E+00 -7.146988968200E+00
  67     8 O     1.310408720000E+00 -1.701454801200E+00  3.206875800000E-01
  68     8 O     2.077142603200E+00  3.262504291200E+00 -3.297532586800E+00
  69     8 O    -3.115076864000E-01  3.680972526000E-01 -3.552877229400E+00
  70     8 O     8.679233392000E-01 -1.248199860600E+00 -5.326961860800E+00
  71     8 O     4.813848820800E+00 -2.149822613400E+00 -1.336175506200E+00
  72     8 O     2.202539609600E+00  1.388426886000E+00 -5.087879035200E+00
  73    14 SI    1.666919916800E+00  4.581829698600E+00  9.885365232000E-01
  74    14 SI    3.915884532800E+00  1.995479547600E+00  2.732667570000E-01
  75    14 SI    1.551220672000E-01  3.158280510000E+00  2.012416911600E+00
  76    14 SI    2.868094566400E+00  7.160691846000E-01  1.921418967800E+00
  77    14 SI    1.552768523200E+00  1.918386670200E+00  3.364126433200E+00
  78    14 SI    4.131025320000E+00  4.575956754600E+00  3.253113945400E+00
  79    14 SI    1.402974433600E+00 -3.544741200000E-02  2.782703930000E-01
  80    14 SI    5.168748988800E+00 -3.509818158000E+00 -3.229619600000E-01
  81    14 SI    3.499617856000E-01 -2.303494485600E+00  1.650745004000E+00
  82    14 SI    3.162691715200E+00 -4.367918200800E+00  1.812453422000E+00
  83    14 SI    1.608817584000E+00 -3.402699854400E+00  3.213244064000E+00
  84    14 SI    4.222611780800E+00 -8.482104246000E-01  3.024834424800E+00
  85    14 SI   -3.457478396800E+00  5.037286993200E+00  2.783158806000E-01
  86    14 SI   -1.307439372800E+00  1.852085327400E+00  7.114260640000E-01
  87    14 SI    5.141993275200E+00  2.954919336600E+00  2.019694927600E+00
  88    14 SI   -2.372466294400E+00  5.269289256000E-01  2.216906417400E+00
  89    14 SI   -3.818348848000E+00  1.905738865800E+00  3.293097545800E+00
  90    14 SI   -1.083938083200E+00  4.468125307800E+00  3.404041802200E+00
  91    14 SI   -3.580327240000E+00 -6.881727006000E-01  6.982346600000E-01
  92    14 SI   -6.856243744000E-01 -3.768846450600E+00  2.340109582000E-01
  93    14 SI   -4.993715448000E+00 -2.343954874800E+00  1.657841069600E+00
  94    14 SI   -2.105119750400E+00 -4.625761417200E+00  1.897901878600E+00
  95    14 SI   -3.654424035200E+00 -3.423066385200E+00  3.195481156200E+00
  96    14 SI   -8.607210928000E-01 -8.868460062000E-01  3.130274681600E+00
  97    14 SI    2.657039264000E-01  4.917017490000E-01  4.597681913800E+00
  98    14 SI    2.886447659200E+00  3.267706041600E+00  4.676693875000E+00
  99    14 SI    1.583894020800E+00  4.598200530000E+00  6.012960356400E+00
 100    14 SI    4.251378648000E+00  1.890710421600E+00  5.939293188200E+00
 101    14 SI    2.396115776000E-01  3.198038243400E+00  7.231368466200E+00
 102    14 SI    2.947361395200E+00  6.076189812000E-01  7.303921188200E+00
 103    14 SI    2.669148304000E-01 -4.608929140200E+00  4.631319994000E+00
 104    14 SI    2.848140974400E+00 -1.991169226200E+00  4.524697059600E+00
 105    14 SI    1.607575091200E+00 -7.104059886000E-01  5.997903960800E+00
 106    14 SI    4.210608036800E+00 -3.299010930600E+00  5.843041426600E+00
 107    14 SI    3.091701152000E-01 -2.026794924000E+00  7.378839265400E+00
 108    14 SI    2.931272166400E+00 -4.543718487000E+00  7.329803632600E+00
 109    14 SI   -5.070349876800E+00  4.873809402000E-01  4.549874446200E+00
 110    14 SI   -2.503875702400E+00  3.191420694000E+00  4.668938239200E+00
 111    14 SI   -3.713126555200E+00  4.499629457400E+00  6.099227589800E+00
 112    14 SI   -1.079463003200E+00  1.849977360000E+00  5.892509191600E+00
 113    14 SI   -4.959399481600E+00  3.093636176400E+00  7.445569574600E+00
 114    14 SI   -2.318870630400E+00  5.587372098000E-01  7.334943731400E+00
 115    14 SI   -4.957883219200E+00 -4.732554611400E+00  4.614102937400E+00
 116    14 SI   -2.323935368000E+00 -2.044633991400E+00  4.518010382400E+00
 117    14 SI   -3.640914558400E+00 -7.196768502000E-01  5.910135636600E+00
 118    14 SI   -1.041451147200E+00 -3.281161375800E+00  5.964174905400E+00
 119    14 SI   -5.062568502400E+00 -1.956571293600E+00  7.239237821000E+00
 120    14 SI   -2.229221616000E+00 -4.687983161400E+00  7.301260163600E+00
 121    14 SI    1.663403030400E+00  1.991672621400E+00  8.545891874800E+00
 122    14 SI    4.235468422400E+00  4.570985727000E+00  8.643894909000E+00
 123    14 SI    1.567604729600E+00 -3.319146738600E+00  8.764596255600E+00
 124    14 SI    4.252473726400E+00 -5.931044196000E-01  8.726295696400E+00
 125    14 SI   -3.534239180800E+00  1.815106755000E+00  8.798461773800E+00
 126    14 SI   -9.276998784000E-01  4.530493875600E+00  8.667548461000E+00
 127    14 SI   -3.822234270400E+00 -3.479362748400E+00  8.342334864800E+00
 128    14 SI   -8.776000416000E-01 -5.875985346000E-01  8.743467265400E+00
 129    14 SI    5.183511488000E-01  7.835975532000E-01  1.012540329720E+01
 130    14 SI    2.745351019200E+00  3.382585021200E+00  1.000331457880E+01
 131    14 SI    9.958790384000E-01  5.182023600600E+00 -1.112199112560E+01
 132    14 SI    2.737285345600E+00 -1.705544887200E+00  1.006763404520E+01
 133    14 SI   -4.793758344000E+00  4.592222712000E-01  1.019966180420E+01
 134    14 SI   -2.450269508800E+00  3.426548202000E+00  1.009774683640E+01
 135    14 SI   -4.764833532800E+00 -4.764583131000E+00  9.984391737200E+00
 136    14 SI   -2.277499832000E+00 -1.387996902600E+00  1.036710165980E+01
 137   272 HF   -1.201206238400E+00  3.143115729600E+00 -1.037362913040E+01
 138   272 HF   -4.236489793600E+00  5.083746175200E+00 -8.439496378400E+00
 139   272 HF    1.850029660800E+00 -1.755590760000E-02 -8.664955667800E+00
 140   272 HF   -1.807669080000E+00 -1.374164022000E-01 -9.372788211400E+00
 141   272 HF    3.931615755200E+00  2.600560578000E+00 -1.042132287900E+01
 142   272 HF    3.595837340800E+00 -4.157058536400E+00 -1.037626741120E+01
 143   272 HF   -1.666330259200E+00 -3.954106371600E+00 -9.625858474000E+00
 144   272 HF   -4.388389803200E+00 -2.587975698000E+00 -1.105180375880E+01
 145   272 HF    5.048827374400E+00 -2.502398514000E-01 -8.508046191600E+00
 146   272 HF    1.271975680000E+00  4.910756512200E+00 -8.014573963000E+00
 147   272 HF   -4.051210952000E+00  1.524972834000E+00 -1.033955891800E+00
 148   272 HF   -1.935677427200E+00  3.185673598800E+00 -3.428764312800E+00
 149   272 HF    4.032362968000E+00 -3.244812047400E+00 -7.072707717400E+00
 150   272 HF    3.446464435200E+00 -6.760597536000E-01 -1.796100629800E+00
 151   272 HF    4.257391049600E+00 -3.116551145400E+00 -3.211697485600E+00
 152   272 HF    1.029721172800E+00  3.891255383400E+00 -1.721068833600E+00
 153   272 HF    4.426643840000E-01 -2.620014705000E+00 -6.874768426000E+00
 154   272 HF    5.985445824000E-01 -3.152061481800E+00 -2.059837734600E+00
 155   272 HF   -4.762495961600E+00  4.440040050600E+00 -5.111691793800E+00
 156   272 HF   -3.423067664000E+00  1.406140104600E+00 -6.342586249800E+00
 157   272 HF    1.965139248000E+00  4.890757040400E+00 -4.689953510400E+00
 158   272 HF   -1.173281739200E+00 -9.326864316000E-01 -4.948732466800E+00
 159   272 HF   -1.114726633600E+00  5.682702564000E-01 -1.712494421000E+00
 160   272 HF    3.729089428800E+00  1.844261727000E+00 -3.596522581600E+00
 161   272 HF   -2.615078808000E+00 -3.840213207600E+00 -3.589267309400E+00
 162   272 HF    1.882692480000E-01  1.769234867400E+00 -4.939407508800E+00
 163   272 HF    3.400492201600E+00  2.209810541400E+00 -6.967540386200E+00
 164   272 HF   -1.926558793600E+00  4.721039446200E+00 -6.676783647000E+00
 165   272 HF   -4.524232172800E+00 -6.048503076000E-01 -3.724934076400E+00
 166   272 HF   -5.144973152000E+00  4.572317626800E+00 -1.644308508600E+00
 167   272 HF   -3.024669718400E+00 -2.043323066400E+00 -7.092267385400E+00
 168   272 HF    2.869895128000E+00 -6.021865080000E-01 -5.256979188200E+00

 *******************************************************************************
 *** PSEUDOPOTENTIAL INFORMATION ***
 *******************************************************************************

 ATOMIC NUMBER  72, NUCLEAR CHARGE 12.000, HAY-WADT SMALL CORE  PSEUDOPOTENTIAL
   TYPE       EXPONENT      COEFF.    N      EXPONENT      COEFF.    N
  W0 TMS   685.5502931  -60.0000000  -1   151.8080485 -688.4980664   0
            38.0522099 -199.7748820   0    10.2057544  -77.2365121   0
             3.4376287  -14.6532596   0     0.8997539   -0.6762204   0
  P0 TMS   380.1096725    3.0000000  -2   724.6234505   31.3395532  -1
           281.4764603 1251.6866138   0    89.3590988  700.8900106   0
            22.9765773  266.0445845   0     3.6700035  465.0196155   0
             3.4703000 -369.5404568   0
  P1 TMS   228.3135771    2.0000000  -2    64.0878447   60.2776972  -1
            20.5139289  192.2174983   0     3.1643736  339.6460089   0
             2.9880924 -266.1066543   0
  P2 TMS   143.7102399    3.0000000  -2    63.1859170   54.6576760  -1
            32.0227449  217.5811427   0    10.7674922  125.1363084   0
             3.1003260   37.6203195   0
  P3 TMS    85.0395853    4.0000000  -2    41.8198820   49.6358393  -1
            19.6524967  178.4657222   0     6.0777120   82.0077173   0
             1.4776693    6.3063943   0

 *******************************************************************************
 LOCAL ATOMIC FUNCTIONS BASIS SET
 *******************************************************************************
   ATOM  X(AU)  Y(AU)  Z(AU)    NO. TYPE  EXPONENT  S COEF   P COEF   D/F/G COEF
 *******************************************************************************
   1 O  -0.388  0.988  0.295
                                  1 S  
                                         2.703E+04 2.173E-04 0.000E+00 0.000E+00
                                         4.052E+03 1.684E-03 0.000E+00 0.000E+00
                                         9.223E+02 8.740E-03 0.000E+00 0.000E+00
                                         2.612E+02 3.524E-02 0.000E+00 0.000E+00
                                         8.535E+01 1.115E-01 0.000E+00 0.000E+00
                                         3.104E+01 2.559E-01 0.000E+00 0.000E+00
                                  2 S  
                                         1.226E+01 3.977E-01 0.000E+00 0.000E+00
                                         4.999E+00 2.463E-01 0.000E+00 0.000E+00
                                  3 S  
                                         1.099E+00 1.000E+00 0.000E+00 0.000E+00
                                  4 S  
                                         3.566E-01 1.000E+00 0.000E+00 0.000E+00
                             5-   7 P  
                                         6.327E+01 0.000E+00 6.069E-03 0.000E+00
                                         1.463E+01 0.000E+00 4.191E-02 0.000E+00
                                         4.450E+00 0.000E+00 1.615E-01 0.000E+00
                                         1.528E+00 0.000E+00 3.571E-01 0.000E+00
                             8-  10 P  
                                         5.490E-01 0.000E+00 1.000E+00 0.000E+00
                            11-  13 P  
                                         1.859E-01 0.000E+00 1.000E+00 0.000E+00
                            14-  18 D  
                                         2.535E-01 0.000E+00 0.000E+00 1.000E+00
   2 O   1.144 -9.702 -0.415
   3 O  -9.137  0.769  0.672
   4 O  -9.721  9.794  0.768
   5 O   2.779  8.517 19.340
   6 O   3.163 -0.840 20.145
   7 O  -7.035  8.443 19.343
   8 O  -7.520 -2.236 19.150
   9 O  -0.067 -7.281-15.953
  10 O  -9.645 -1.820-19.418
  11 O   6.484  1.484-18.074
  12 O   3.637 -3.482-14.595
  13 O  -4.236 -0.376-21.214
  14 O  -3.809  3.418-17.594
  15 O  -6.372 -0.318-15.031
  16 O   3.009  3.015-14.581
  17 O  -0.999  7.855-14.951
  18 O   2.635  7.855-18.585
  19 O  -5.116 -7.772-14.552
  20 O   7.594  8.601-20.427
  21 O  -2.144 -2.700-13.597
  22 O   0.200 -0.639-17.895
  23 O   7.470 -5.099 20.759
  24 O   5.542 -8.104-15.842
  25 O  -9.575 -7.237-18.111
  26 O  -5.185  9.199-18.361
  27 O   9.940  3.058 21.423
  28 O  -0.410  3.625 21.108
  29 O  -4.453 -5.504 21.006
  30 O   7.594  6.207-16.041
  31 O  -1.186 -9.907-20.579
  32 O   3.207 -7.327-20.518
  33 O  -4.963 -4.163-17.597
  34 O  -9.798  2.730-13.531
  35 O  -3.672 -5.235-10.041
  36 O  -7.019 -7.887 -1.843
  37 O   9.893 -9.112-12.646
  38 O   8.687  0.703 -8.879
  39 O  -6.741  6.826 -1.387
  40 O  -1.289  6.776 -9.440
  41 O  -2.402  1.760-11.124
  42 O   6.936 -4.610-10.019
  43 O   2.017 -9.266 -5.413
  44 O  -9.526 -3.802-14.078
  45 O  -5.246  2.656 -4.936
  46 O  -5.572 -9.470 -9.726
  47 O   4.372  6.600 -0.471
  48 O   4.532 -4.395 -4.656
  49 O   8.996  5.498 -4.293
  50 O   7.871 -8.284 -2.860
  51 O  -5.324 -0.647 -1.595
  52 O   3.984  7.438-12.230
  53 O  -6.285 -1.133-10.264
  54 O   3.402  0.569 -2.451
  55 O   9.680  0.920 -4.283
  56 O   6.455  0.042-13.401
  57 O  -8.592 -9.855 -6.326
  58 O   6.829 -9.021 -8.247
  59 O  -3.519  9.446 -5.229
  60 O   8.079  5.799 -9.728
  61 O  -0.782  4.992 -3.722
  62 O   1.874 -8.126-11.182
  63 O  -6.527  5.438 -8.997
  64 O  -8.116 -4.931 -6.746
  65 O  -1.815 -5.074 -5.713
  66 O  -6.503  6.812-13.506
  67 O   2.476 -3.215  0.606
  68 O   3.925  6.165 -6.231
  69 O  -0.589  0.696 -6.714
  70 O   1.640 -2.359-10.066
  71 O   9.097 -4.063 -2.525
  72 O   4.162  2.624 -9.615
  73 SI  3.150  8.658  1.868
                               1297 S  
                                         8.765E+04 2.370E-04 0.000E+00 0.000E+00
                                         1.285E+04 1.920E-03 0.000E+00 0.000E+00
                                         2.786E+03 1.090E-02 0.000E+00 0.000E+00
                                         7.280E+02 4.960E-02 0.000E+00 0.000E+00
                                         2.195E+02 1.668E-01 0.000E+00 0.000E+00
                                         7.590E+01 3.630E-01 0.000E+00 0.000E+00
                                         2.946E+01 4.051E-01 0.000E+00 0.000E+00
                                         1.199E+01 1.504E-01 0.000E+00 0.000E+00
                          1298-1301 SP 
                                         1.660E+02-8.840E-03 9.090E-03 0.000E+00
                                         3.937E+01-8.590E-02 6.010E-02 0.000E+00
                                         1.271E+01-7.120E-02 1.952E-01 0.000E+00
                                         4.718E+00 4.147E-01 3.384E-01 0.000E+00
                                         1.848E+00 6.168E-01 3.006E-01 0.000E+00
                                         7.365E-01 1.154E-01 6.480E-02 0.000E+00
                          1302-1305 SP 
                                         4.175E+00-1.990E-02-8.700E-03 0.000E+00
                                         1.447E+00-1.864E-01-4.380E-03 0.000E+00
                                         5.023E-01 9.670E-02 2.207E-01 0.000E+00
                          1306-1309 SP 
                                         3.220E-01 1.000E+00 1.000E+00 0.000E+00
                          1310-1313 SP 
                                         1.300E-01 1.000E+00 1.000E+00 0.000E+00
                          1314-1318 D  
                                         6.000E-01 0.000E+00 0.000E+00 1.000E+00
  74 SI  7.400  3.771  0.516
  75 SI  0.293  5.968  3.803
  76 SI  5.420  1.353  3.631
  77 SI  2.934  3.625  6.357
  78 SI  7.807  8.647  6.147
  79 SI  2.651 -0.067  0.526
  80 SI  9.768 -6.633 -0.610
  81 SI  0.661 -4.353  3.119
  82 SI  5.977 -8.254  3.425
  83 SI  3.040 -6.430  6.072
  84 SI  7.980 -1.603  5.716
  85 SI -6.534  9.519  0.526
  86 SI -2.471  3.500  1.344
  87 SI  9.717  5.584  3.817
  88 SI -4.483  0.996  4.189
  89 SI -7.216  3.601  6.223
  90 SI -2.048  8.444  6.433
  91 SI -6.766 -1.300  1.319
  92 SI -1.296 -7.122  0.442
  93 SI -9.437 -4.429  3.133
  94 SI -3.978 -8.741  3.587
  95 SI -6.906 -6.469  6.039
  96 SI -1.627 -1.676  5.915
  97 SI  0.502  0.929  8.688
  98 SI  5.455  6.175  8.838
  99 SI  2.993  8.689 11.363
 100 SI  8.034  3.573 11.224
 101 SI  0.453  6.043 13.665
 102 SI  5.570  1.148 13.802
 103 SI  0.504 -8.710  8.752
 104 SI  5.382 -3.763  8.550
 105 SI  3.038 -1.342 11.334
 106 SI  7.957 -6.234 11.042
 107 SI  0.584 -3.830 13.944
 108 SI  5.539 -8.586 13.851
 109 SI -9.582  0.921  8.598
 110 SI -4.732  6.031  8.823
 111 SI -7.017  8.503 11.526
 112 SI -2.040  3.496 11.135
 113 SI -9.372  5.846 14.070
 114 SI -4.382  1.056 13.861
 115 SI -9.369 -8.943  8.719
 116 SI -4.392 -3.864  8.538
 117 SI -6.880 -1.360 11.169
 118 SI -1.968 -6.200 11.271
 119 SI -9.567 -3.697 13.680
 120 SI -4.213 -8.859 13.797
 121 SI  3.143  3.764 16.149
 122 SI  8.004  8.638 16.335
 123 SI  2.962 -6.272 16.563
 124 SI  8.036 -1.121 16.490
 125 SI -6.679  3.430 16.627
 126 SI -1.753  8.561 16.379
 127 SI -7.223 -6.575 15.765
 128 SI -1.658 -1.110 16.523
 129 SI  0.980  1.481 19.134
 130 SI  5.188  6.392 18.904
 131 SI  1.882  9.793-21.018
 132 SI  5.173 -3.223 19.025
 133 SI -9.059  0.868 19.275
 134 SI -4.630  6.475 19.082
 135 SI -9.004 -9.004 18.868
 136 SI -4.304 -2.623 19.591
 137 HF -2.270  5.940-19.603
                               2705 S  
                                         2.400E+01 2.211E-01 0.000E+00 0.000E+00
                                         1.600E+01-3.581E+00 0.000E+00 0.000E+00
                                         1.440E+01 4.254E+00 0.000E+00 0.000E+00
                                         1.030E+01-6.959E-01 0.000E+00 0.000E+00
                               2706 S  
                                         3.793E+00 1.000E+00 0.000E+00 0.000E+00
                               2707 S  
                                         1.019E+00 1.000E+00 0.000E+00 0.000E+00
                               2708 S  
                                         4.599E-01 1.000E+00 0.000E+00 0.000E+00
                               2709 S  
                                         1.928E-01 1.000E+00 0.000E+00 0.000E+00
                          2710-2712 P  
                                         2.235E+01 0.000E+00-7.453E-03 0.000E+00
                                         8.740E+00 0.000E+00 1.564E-01 0.000E+00
                                         4.850E+00 0.000E+00-4.487E-01 0.000E+00
                          2713-2715 P  
                                         1.257E+00 0.000E+00 1.000E+00 0.000E+00
                          2716-2718 P  
                                         6.112E-01 0.000E+00 1.000E+00 0.000E+00
                          2719-2721 P  
                                         2.674E-01 0.000E+00 1.000E+00 0.000E+00
                          2722-2726 D  
                                         8.056E+00 0.000E+00 0.000E+00 9.673E-03
                                         4.342E+00 0.000E+00 0.000E+00-5.457E-02
                                         1.184E+00 0.000E+00 0.000E+00 1.969E-01
                                         5.134E-01 0.000E+00 0.000E+00 4.000E-01
                          2727-2731 D  
                                         2.055E-01 0.000E+00 0.000E+00 1.000E+00
 138 HF -8.006  9.607-15.948
 139 HF  3.496 -0.033-16.374
 140 HF -3.416 -0.260-17.712
 141 HF  7.430  4.914-19.693
 142 HF  6.795 -7.856-19.608
 143 HF -3.149 -7.472-18.190
 144 HF -8.293 -4.891-20.885
 145 HF  9.541 -0.473-16.078
 146 HF  2.404  9.280-15.145
 147 HF -7.656  2.882 -1.954
 148 HF -3.658  6.020 -6.479
 149 HF  7.620 -6.132-13.365
 150 HF  6.513 -1.278 -3.394
 151 HF  8.045 -5.889 -6.069
 152 HF  1.946  7.353 -3.252
 153 HF  0.837 -4.951-12.991
 154 HF  1.131 -5.957 -3.893
 155 HF -9.000  8.390 -9.660
 156 HF -6.469  2.657-11.986
 157 HF  3.714  9.242 -8.863
 158 HF -2.217 -1.763 -9.352
 159 HF -2.107  1.074 -3.236
 160 HF  7.047  3.485 -6.796
 161 HF -4.942 -7.257 -6.783
 162 HF  0.356  3.343 -9.334
 163 HF  6.426  4.176-13.167
 164 HF -3.641  8.921-12.617
 165 HF -8.550 -1.143 -7.039
 166 HF -9.723  8.640 -3.107
 167 HF -5.716 -3.861-13.402
 168 HF  5.423 -1.138 -9.934
 INFORMATION **** TOLINTEG **** COULOMB AND EXCHANGE SERIES TOLERANCES MODIFIED
 INFORMATION **** READM2 **** FULL DIRECT SCF (MONO AND BIEL INT) SELECTED
 INFORMATION **** SMEAR **** FERMI SMEARING ACTIVE
 FERMI SMEARING - TEMPERATURE SMEARING OF FERMI SURFACE  0.1000E-01
 INFORMATION **** MAXCYCLE **** MAX NUMBER OF SCF CYCLES SET TO         250

 MODIFIED BROYDEN MIXING OF THE FOCK MATRIX
 WO PARAMETER(D.D. Johnson, PRB38, 12807,(1988)             1.0000E-04
 % OF FOCK/KS MATRICES MIXING WHEN BROYDEN METHOD IS ON             93
 NUMBER OF SCF ITERATIONS AFTER WHICH BROYDEN METHOD IS ACTIVE     135
 INFORMATION **** TOLDEE **** SCF TOL ON TOTAL ENERGY SET TO           6
 *******************************************************************************
 N. OF ATOMS PER CELL      168  COULOMB OVERLAP TOL         (T1) 10** -8
 NUMBER OF SHELLS         1312  COULOMB PENETRATION TOL     (T2) 10** -8
 NUMBER OF AO             3568  EXCHANGE OVERLAP TOL        (T3) 10** -8
 N. OF ELECTRONS PER CELL 1856  EXCHANGE PSEUDO OVP (F(G))  (T4) 10** -8
 CORE ELECTRONS PER CELL   784  EXCHANGE PSEUDO OVP (P(G))  (T5) 10**-16
 N. OF SYMMETRY OPERATORS    1  POLE ORDER IN MONO ZONE                4
 *******************************************************************************
 TYPE OF CALCULATION :  UNRESTRICTED OPEN SHELL
 KOHN-SHAM HAMILTONIAN

 (EXCHANGE)[CORRELATION] FUNCTIONAL:(BECKE)[LEE-YANG-PARR]

 NON-LOCAL WEIGHTING FACTOR (EXCHANGE) =           0.9000
 NON-LOCAL WEIGHTING FACTOR [CORRELATION] =        0.8100

 HYBRID EXCHANGE - PERCENTAGE OF FOCK EXCHANGE    20.0000

 SPIN POLARIZED DFT SELECTED
 CORE  PSEUDO POTENTIAL         TOL. ON PSEUDO              (TP) 10**- 6

 CAPPA:IS1  2;IS2  2;IS3  2; K PTS MONK NET    8; SYMMOPS: K SPACE  2;G SPACE  1

 *******************************************************************************
 MAX NUMBER OF SCF CYCLES     250  CONVERGENCE ON DELTAP        10**-16
 WEIGHT OF F(I) IN F(I+1)      97% CONVERGENCE ON ENERGY        10**- 6
 SHRINK. FACT.(MONKH.)    2  2  2  NUMBER OF K POINTS IN THE IBZ      8
 SHRINKING FACTOR(GILAT NET)    2  NUMBER OF K POINTS(GILAT NET)      8
 *******************************************************************************
 *** K POINTS COORDINATES (OBLIQUE COORDINATES IN UNITS OF IS =  2)
   1-R(  0  0  0)   2-R(  1  0  0)   3-R(  0  1  0)   4-R(  1  1  0)
   5-R(  0  0  1)   6-R(  1  0  1)   7-R(  0  1  1)   8-R(  1  1  1)

 DIRECT LATTICE VECTORS COMPON. (A.U.)     RECIP. LATTICE VECTORS COMPON. (A.U.) 
        X            Y            Z              X            Y            Z
   19.8980603    0.0000000    0.0000000      0.3157687    0.0000000    0.0000000
    0.0000000   19.8183139    0.0000000      0.0000000    0.3170393    0.0000000
    0.0000000    0.0000000   42.9795532      0.0000000    0.0000000    0.1461901

 DISK SPACE FOR EIGENVECTORS (FTN 10)  101844992 REALS

 SYMMETRY ADAPTION OF THE BLOCH FUNCTIONS DISABLED

 DIMENSIONS  P(G)= 9568454 F(G)= 1693560 P(G),F(G) (IRR) 4793923
 MAX G-VECTOR INDEX FOR 1- AND 2-ELECTRON INTEGRALS  59

 TTTTTTTTTTTTTTTTTTTTTTTTTTTTTT INPUT       TELAPSE       15.75 TCPU       15.73

 NEIGHBORS OF THE NON-EQUIVALENT ATOMS

 N = NUMBER OF NEIGHBORS AT DISTANCE R
    ATOM  N     R/ANG      R/AU   NEIGHBORS (ATOM LABELS AND CELL INDICES)
   1 O    1     1.7066     3.2251  79 SI   0 0 0
   1 O    1     1.8139     3.4278  86 SI   0 0 0
   1 O    1     2.0787     3.9282 159 HF   0 0 0
   1 O    1     2.4864     4.6987  54 O    0 0 0
   1 O    1     2.6966     5.0958  67 O    0 0 0
   1 O    1     2.9280     5.5331  51 O    0 0 0
   1 O    1     2.9907     5.6516  88 SI   0 0 0
   1 O    1     3.0087     5.6857  61 O    0 0 0
   1 O    1     3.2436     6.1296  75 SI   0 0 0
   1 O    1     3.2451     6.1323  81 SI   0 0 0
   1 O    1     3.3560     6.3420  96 SI   0 0 0
   1 O    1     3.5494     6.7074  76 SI   0 0 0
   1 O    1     3.6266     6.8534  91 SI   0 0 0
   1 O    1     3.7137     7.0179  69 O    0 0 0
   1 O    1     3.8796     7.3314  45 O    0 0 0

   2 O    1     1.7837     3.3708  73 SI   0-1 0
   2 O    1     1.9329     3.6527  92 SI   0 0 0
   2 O    1     2.1383     4.0408 152 HF   0-1 0
   2 O    1     2.5263     4.7739  47 O    0-1 0
   2 O    1     2.6946     5.0920  43 O    0 0 0
   2 O    1     2.7045     5.1107 154 HF   0 0 0
   2 O    1     3.1629     5.9769  75 SI   0-1 0
   2 O    1     3.3549     6.3399  82 SI   0 0 0
   2 O    1     3.3846     6.3959  61 O    0-1 0
   2 O    1     3.4022     6.4292  81 SI   0 0 0
   2 O    1     3.4770     6.5706  94 SI   0 0 0
   2 O    1     3.5455     6.7001  67 O    0 0 0
   2 O    1     3.5646     6.7361  59 O    0-1 0
   2 O    1     3.8613     7.2967  50 O    0 0 0
   2 O    1     3.9735     7.5088  83 SI   0 0 0

   3 O    1     1.7005     3.2136  91 SI   0 0 0
   3 O    1     1.9483     3.6817 147 HF   0 0 0
   3 O    1     2.3859     4.5087  74 SI  -1 0 0
   3 O    1     2.4644     4.6570  51 O    0 0 0
   3 O    1     2.6850     5.0738  55 O   -1 0 0
   3 O    1     3.0478     5.7595  93 SI   0 0 0
   3 O    1     3.0892     5.8378  88 SI   0 0 0
   3 O    1     3.0926     5.8443  87 SI  -1 0 0
   3 O    1     3.1901     6.0283  71 O   -1 0 0
   3 O    1     3.2456     6.1334  76 SI  -1 0 0
   3 O    1     3.2950     6.2267 150 HF  -1 0 0
   3 O    1     3.2963     6.2291  84 SI  -1 0 0
   3 O    1     3.4507     6.5208  89 SI   0 0 0
   3 O    1     3.6150     6.8313  39 O    0 0 0
   3 O    1     3.7469     7.0805  49 O   -1 0 0

   4 O    1     1.6978     3.2083  85 SI   0 0 0
   4 O    1     1.9493     3.6836  80 SI  -1 1 0
   4 O    1     2.1396     4.0432 166 HF   0 0 0
   4 O    1     2.2874     4.3225  36 O    0 1 0
   4 O    1     2.4539     4.6372  50 O   -1 1 0
   4 O    1     2.5010     4.7262  39 O    0 0 0
   4 O    1     2.7616     5.2186  87 SI  -1 0 0
   4 O    1     2.7920     5.2761  82 SI  -1 1 0
   4 O    1     3.1696     5.9897  78 SI  -1 0 0
   4 O    1     3.2177     6.0806  93 SI   0 1 0
   4 O    1     3.4527     6.5247  94 SI   0 1 0
   4 O    1     3.5124     6.6375  74 SI  -1 0 0
   4 O    1     3.5671     6.7408  47 O   -1 0 0
   4 O    1     3.5682     6.7429  49 O   -1 0 0
   4 O    1     3.6489     6.8955  71 O   -1 1 0

   5 O    1     1.6143     3.0505 131 SI   0 0 1
   5 O    1     1.7153     3.2415 130 SI   0 0 0
   5 O    1     2.6837     5.0714  32 O    0 1 1
   5 O    1     2.6984     5.0993  18 O    0 0 1
   5 O    1     2.7514     5.1995  31 O    0 1 1
   5 O    1     2.8650     5.4140 126 SI   0 0 0
   5 O    1     3.0356     5.7365 121 SI   0 0 0
   5 O    1     3.0418     5.7483 123 SI   0 1 0
   5 O    1     3.0633     5.7888  20 O    0 0 1
   5 O    1     3.1903     6.0289 122 SI   0 0 0
   5 O    1     3.2285     6.1010  28 O    0 0 0
   5 O    1     3.4996     6.6134 101 SI   0 0 0
   5 O    1     3.5201     6.6520 142 HF   0 1 1
   5 O    1     3.5546     6.7172 108 SI   0 1 0
   5 O    1     3.6824     6.9587 137 HF   0 0 1

   6 O    1     1.7527     3.3121 132 SI   0 0 0
   6 O    1     1.7690     3.3429 129 SI   0 0 0
   6 O    1     3.0500     5.7637  22 O    0 0 1
   6 O    1     3.0688     5.7992  28 O    0 0 0
   6 O    1     3.1942     6.0361 128 SI   0 0 0
   6 O    1     3.2215     6.0878  23 O    0 0 0
   6 O    1     3.2258     6.0959 121 SI   0 0 0
   6 O    1     3.2267     6.0976 124 SI   0 0 0
   6 O    1     3.3090     6.2532  11 O    0 0 1
   6 O    1     3.4448     6.5097 123 SI   0 0 0
   6 O    1     3.4499     6.5193 139 HF   0 0 1
   6 O    1     3.6452     6.8885  32 O    0 0 1
   6 O    1     3.7408     7.0690 102 SI   0 0 0
   6 O    1     3.8899     7.3508 107 SI   0 0 0
   6 O    1     4.0156     7.5884  13 O    0 0 1

   7 O    1     1.6501     3.1183 134 SI   0 0 0
   7 O    1     1.6504     3.1189 135 SI   0 1 0
   7 O    1     2.9850     5.6408  26 O    0 0 1
   7 O    1     3.0231     5.7129 125 SI   0 0 0
   7 O    1     3.0261     5.7184 122 SI  -1 0 0
   7 O    1     3.1700     5.9904 127 SI   0 1 0
   7 O    1     3.2058     6.0581 126 SI   0 0 0
   7 O    1     3.2656     6.1710  20 O   -1 0 1
   7 O    1     3.3473     6.3255 113 SI   0 0 0
   7 O    1     3.4240     6.4705  27 O   -1 0 0
   7 O    1     3.5061     6.6256  29 O    0 1 0
   7 O    1     3.5521     6.7125 120 SI   0 1 0
   7 O    1     3.5592     6.7260 137 HF   0 0 1
   7 O    1     3.5780     6.7615  31 O    0 1 1
   7 O    1     3.7866     7.1556 144 HF   0 1 1

   8 O    1     1.7301     3.2695 136 SI   0 0 0
   8 O    1     1.8342     3.4662 133 SI   0 0 0
   8 O    1     2.1373     4.0390 144 HF   0 0 1
   8 O    1     2.4296     4.5913  13 O    0 0 1
   8 O    1     2.5672     4.8513  29 O    0 0 0
   8 O    1     2.6004     4.9140  10 O    0 0 1
   8 O    1     2.7583     5.2125 124 SI  -1 0 0
   8 O    1     2.9168     5.5119 127 SI   0 0 0
   8 O    1     3.1251     5.9057  23 O   -1 0 0
   8 O    1     3.1860     6.0207 119 SI   0 0 0
   8 O    1     3.3103     6.2556  27 O   -1 0 0
   8 O    1     3.3123     6.2593 125 SI   0 0 0
   8 O    1     3.4511     6.5217 128 SI   0 0 0
   8 O    1     3.6696     6.9346 135 SI   0 0 0
   8 O    1     3.6914     6.9757 114 SI   0 0 0

   9 O    1     2.0178     3.8131 143 HF   0 0 0
   9 O    1     2.0505     3.8749 153 HF   0 0 0
   9 O    1     2.2054     4.1676 146 HF   0-1 0
   9 O    1     2.5815     4.8783  17 O    0-1 0
   9 O    1     2.7621     5.2196  62 O    0 0 0
   9 O    1     2.7848     5.2625  19 O    0 0 0
   9 O    1     2.8763     5.4355  31 O    0 0 0
   9 O    1     2.8979     5.4762  12 O    0 0 0
   9 O    1     2.9392     5.5542  21 O    0 0 0
   9 O    1     2.9729     5.6179  32 O    0 0 0
   9 O    1     3.0004     5.6699  24 O    0 0 0
   9 O    1     3.1818     6.0128  18 O    0-1 0
   9 O    1     3.1921     6.0322  33 O    0 0 0
   9 O    1     3.2178     6.0807 164 HF   0-1 0
   9 O    1     3.2181     6.0813 131 SI   0-1 0

  10 O    1     1.9379     3.6622 144 HF   0 0 0
  10 O    1     1.9425     3.6709 145 HF  -1 0 0
  10 O    1     2.6004     4.9140   8 O    0 0-1
  10 O    1     2.6955     5.0938 133 SI   0 0-1
  10 O    1     2.7167     5.1339  23 O   -1 0-1
  10 O    1     2.7459     5.1890  11 O   -1 0 0
  10 O    1     2.8232     5.3351  27 O   -1 0-1
  10 O    1     2.9336     5.5437  33 O    0 0 0
  10 O    1     2.9494     5.5736  25 O    0 0 0
  10 O    1     3.0032     5.6753  15 O    0 0 0
  10 O    1     3.0151     5.6976  44 O    0 0 0
  10 O    1     3.1112     5.8793  13 O    0 0 0
  10 O    1     3.5158     6.6439 140 HF   0 0 0
  10 O    1     3.5475     6.7037 136 SI   0 0-1
  10 O    1     3.6306     6.8607  29 O    0 0-1

  11 O    1     1.9882     3.7572 139 HF   0 0 0
  11 O    1     2.0690     3.9098 141 HF   0 0 0
  11 O    1     2.1919     4.1421 145 HF   0 0 0
  11 O    1     2.5881     4.8907  56 O    0 0 0
[...]
 153 HF   1     3.5469     6.7026 168 HF   0 0 0
 153 HF   1     3.5820     6.7690  19 O    0 0 0
 153 HF   1     3.5951     6.7938  42 O    0 0 0

 154 HF   1     1.8910     3.5735  65 O    0 0 0
 154 HF   1     1.9836     3.7485  43 O    0 0 0
 154 HF   1     2.0210     3.8192  48 O    0 0 0
 154 HF   1     2.7002     5.1027  92 SI   0 0 0
 154 HF   1     2.7045     5.1107   2 O    0 0 0
 154 HF   1     2.8771     5.4370  67 O    0 0 0
 154 HF   1     3.4665     6.5507  59 O    0-1 0
 154 HF   1     3.4875     6.5903 152 HF   0-1 0
 154 HF   1     3.6249     6.8501 161 HF   0 0 0
 154 HF   1     3.7350     7.0582  54 O    0 0 0
 154 HF   1     3.7830     7.1488 150 HF   0 0 0
 154 HF   1     3.7910     7.1639  70 O    0 0 0
 154 HF   1     3.8129     7.2053  50 O    0 0 0
 154 HF   1     3.8145     7.2083  81 SI   0 0 0
 154 HF   1     3.8360     7.2491 151 HF   0 0 0

 155 HF   1     1.9628     3.7091  57 O    0 1 0
 155 HF   1     2.0266     3.8297  60 O   -1 0 0
 155 HF   1     2.0677     3.9074  63 O    0 0 0
 155 HF   1     2.0693     3.9105  37 O   -1 1 0
 155 HF   1     2.0891     3.9478  46 O    0 1 0
 155 HF   1     2.5662     4.8495  66 O    0 0 0
 155 HF   1     2.6112     4.9345  58 O   -1 1 0
 155 HF   1     3.2513     6.1441 164 HF   0 0 0
 155 HF   1     3.3794     6.3861  49 O   -1 0 0
 155 HF   1     3.4301     6.4819 138 HF   0 0 0
 155 HF   1     3.4352     6.4916 161 HF   0 1 0
 155 HF   1     3.4909     6.5969 166 HF   0 0 0
 155 HF   1     3.5209     6.6535 148 HF   0 0 0
 155 HF   1     3.5375     6.6849 156 HF   0 0 0
 155 HF   1     3.6314     6.8624 160 HF  -1 0 0

 156 HF   1     1.9429     3.6716  34 O    0 0 0
 156 HF   1     2.1606     4.0830  63 O    0 0 0
 156 HF   1     2.2049     4.1666  53 O    0 0 0
 156 HF   1     2.2505     4.2528  41 O    0 0 0
 156 HF   1     2.2535     4.2585  15 O    0 0 0
 156 HF   1     2.3411     4.4241  66 O    0 0 0
 156 HF   1     3.1731     5.9963  38 O   -1 0 0
 156 HF   1     3.3091     6.2532  14 O    0 0 0
 156 HF   1     3.4157     6.4547 145 HF  -1 0 0
 156 HF   1     3.4798     6.5758 165 HF   0 0 0
 156 HF   1     3.4940     6.6028  60 O   -1 0 0
 156 HF   1     3.5319     6.6744 158 HF   0 0 0
 156 HF   1     3.5375     6.6849 155 HF   0 0 0
 156 HF   1     3.5524     6.7131 167 HF   0 0 0
 156 HF   1     3.6524     6.9020 164 HF   0 0 0

 157 HF   1     1.8710     3.5356  58 O    0 1 0
 157 HF   1     2.0268     3.8302  52 O    0 0 0
 157 HF   1     2.0335     3.8428  62 O    0 1 0
 157 HF   1     2.1454     4.0542  68 O    0 0 0
 157 HF   1     2.1493     4.0615  43 O    0 1 0
 157 HF   1     2.9674     5.6076  40 O    0 0 0
 157 HF   1     2.9775     5.6266  60 O    0 0 0
 157 HF   1     3.2693     6.1781 152 HF   0 0 0
 157 HF   1     3.3962     6.4178 146 HF   0 0 0
 157 HF   1     3.5328     6.6761  72 O    0 0 0
 157 HF   1     3.6005     6.8039 162 HF   0 0 0
 157 HF   1     3.6401     6.8789  42 O    0 1 0
 157 HF   1     3.6862     6.9660 160 HF   0 0 0
 157 HF   1     3.6865     6.9665 151 HF   0 1 0
 157 HF   1     3.7994     7.1797 163 HF   0 0 0

 158 HF   1     2.0255     3.8277  35 O    0 0 0
 158 HF   1     2.0889     3.9474  41 O    0 0 0
 158 HF   1     2.0936     3.9563  69 O    0 0 0
 158 HF   1     2.0998     3.9680  70 O    0 0 0
 158 HF   1     2.2310     4.2160  53 O    0 0 0
 158 HF   1     2.3011     4.3484  21 O    0 0 0
 158 HF   1     2.6125     4.9369  65 O    0 0 0
 158 HF   1     3.0256     5.7176 162 HF   0 0 0
 158 HF   1     3.0279     5.7218 153 HF   0 0 0
 158 HF   1     3.0423     5.7492 167 HF   0 0 0
 158 HF   1     3.5186     6.6492 161 HF   0 0 0
 158 HF   1     3.5319     6.6744 156 HF   0 0 0
 158 HF   1     3.5678     6.7423 159 HF   0 0 0
 158 HF   1     3.5825     6.7699 165 HF   0 0 0
 158 HF   1     3.6739     6.9427  45 O    0 0 0

 159 HF   1     2.0180     3.8134  69 O    0 0 0
 159 HF   1     2.0665     3.9051  45 O    0 0 0
 159 HF   1     2.0787     3.9282   1 O    0 0 0
 159 HF   1     2.1172     4.0009  51 O    0 0 0
 159 HF   1     2.2038     4.1645  61 O    0 0 0
 159 HF   1     2.7497     5.1961  86 SI   0 0 0
 159 HF   1     2.9567     5.5874  54 O    0 0 0
 159 HF   1     3.1621     5.9754 147 HF   0 0 0
 159 HF   1     3.2358     6.1148 148 HF   0 0 0
 159 HF   1     3.2660     6.1718  79 SI   0 0 0
 159 HF   1     3.5110     6.6348  65 O    0 0 0
 159 HF   1     3.5678     6.7423 158 HF   0 0 0
 159 HF   1     3.6701     6.9354  91 SI   0 0 0
 159 HF   1     3.6815     6.9569 162 HF   0 0 0
 159 HF   1     3.8945     7.3594  67 O    0 0 0

 160 HF   1     1.9882     3.7571  49 O    0 0 0
 160 HF   1     2.0336     3.8429  38 O    0 0 0
 160 HF   1     2.0507     3.8752  60 O    0 0 0
 160 HF   1     2.1823     4.1239  72 O    0 0 0
 160 HF   1     2.1977     4.1530  68 O    0 0 0
 160 HF   1     2.3565     4.4531  55 O    0 0 0
 160 HF   1     3.0790     5.8185 168 HF   0 0 0
 160 HF   1     3.1102     5.8774 150 HF   0 0 0
 160 HF   1     3.3461     6.3231 165 HF   1 0 0
 160 HF   1     3.3749     6.3776  54 O    0 0 0
 160 HF   1     3.4067     6.4377 163 HF   0 0 0
 160 HF   1     3.6314     6.8624 155 HF   1 0 0
 160 HF   1     3.6862     6.9660 157 HF   0 0 0
 160 HF   1     3.6909     6.9748  63 O    1 0 0
 160 HF   1     3.7409     7.0693 166 HF   1 0 0

 161 HF   1     1.9772     3.7364  46 O    0 0 0
 161 HF   1     1.9899     3.7605  59 O    0-1 0
 161 HF   1     2.0826     3.9356  64 O    0 0 0
 161 HF   1     2.0958     3.9605  65 O    0 0 0
 161 HF   1     2.1376     4.0395  35 O    0 0 0
 161 HF   1     2.3831     4.5034  57 O    0 0 0
 161 HF   1     2.8552     5.3955  36 O    0 0 0
 161 HF   1     3.4352     6.4916 155 HF   0-1 0
 161 HF   1     3.5186     6.6492 158 HF   0 0 0
 161 HF   1     3.5312     6.6730 148 HF   0-1 0
 161 HF   1     3.6249     6.8501 154 HF   0 0 0
 161 HF   1     3.7036     6.9988 164 HF   0-1 0
 161 HF   1     3.7471     7.0810 151 HF  -1 0 0
 161 HF   1     3.7591     7.1037 165 HF   0 0 0
 161 HF   1     3.7950     7.1716  53 O    0 0 0

 162 HF   1     1.9312     3.6494  41 O    0 0 0
 162 HF   1     2.0149     3.8076  40 O    0 0 0
 162 HF   1     2.0336     3.8429  69 O    0 0 0
 162 HF   1     2.0553     3.8840  72 O    0 0 0
 162 HF   1     2.9144     5.5073  68 O    0 0 0
 162 HF   1     2.9664     5.6057 148 HF   0 0 0
 162 HF   1     3.0256     5.7176 158 HF   0 0 0
 162 HF   1     3.1161     5.8886  16 O    0 0 0
 162 HF   1     3.1172     5.8907  70 O    0 0 0
 162 HF   1     3.1533     5.9588  61 O    0 0 0
 162 HF   1     3.2758     6.1903  52 O    0 0 0
 162 HF   1     3.5938     6.7914 168 HF   0 0 0
 162 HF   1     3.6005     6.8039 157 HF   0 0 0
 162 HF   1     3.6815     6.9569 159 HF   0 0 0
 162 HF   1     3.7864     7.1552  45 O    0 0 0

 163 HF   1     1.9620     3.7077  30 O    0 0 0
 163 HF   1     2.0511     3.8761  16 O    0 0 0
 163 HF   1     2.0981     3.9648  34 O    1 0 0
 163 HF   1     2.1914     4.1411  56 O    0 0 0
 163 HF   1     2.1940     4.1461  60 O    0 0 0
 163 HF   1     2.2123     4.1807  52 O    0 0 0
 163 HF   1     2.3755     4.4890  72 O    0 0 0
 163 HF   1     2.9619     5.5972  11 O    0 0 0
 163 HF   1     3.1555     5.9630  38 O    0 0 0
 163 HF   1     3.2010     6.0490 139 HF   0 0 0
 163 HF   1     3.3339     6.3002 168 HF   0 0 0
 163 HF   1     3.3380     6.3078 145 HF   0 0 0
 163 HF   1     3.4067     6.4377 160 HF   0 0 0
 163 HF   1     3.5162     6.6446 141 HF   0 0 0
 163 HF   1     3.5947     6.7930 146 HF   0 0 0

 164 HF   1     1.9396     3.6653  66 O    0 0 0
 164 HF   1     1.9488     3.6828  17 O    0 0 0
 164 HF   1     1.9888     3.7583  46 O    0 1 0
 164 HF   1     2.0956     3.9601  19 O    0 1 0
 164 HF   1     2.3799     4.4974  40 O    0 0 0
 164 HF   1     2.9282     5.5335 138 HF   0 0 0
 164 HF   1     3.0661     5.7941  63 O    0 0 0
 164 HF   1     3.1510     5.9545  26 O    0 0 0
 164 HF   1     3.2178     6.0807   9 O    0 1 0
 164 HF   1     3.2513     6.1441 155 HF   0 0 0
 164 HF   1     3.2916     6.2201  35 O    0 1 0
 164 HF   1     3.3533     6.3368  62 O    0 1 0
 164 HF   1     3.4712     6.5596 143 HF   0 1 0
 164 HF   1     3.4722     6.5615 146 HF   0 0 0
 164 HF   1     3.4981     6.6104  37 O   -1 1 0

 165 HF   1     1.9712     3.7250  38 O   -1 0 0
 165 HF   1     2.0235     3.8238  64 O    0 0 0
 165 HF   1     2.0248     3.8262  55 O   -1 0 0
 165 HF   1     2.0854     3.9409  53 O    0 0 0
 165 HF   1     2.8874     5.4564  45 O    0 0 0
 165 HF   1     3.0843     5.8285  71 O   -1 0 0
 165 HF   1     3.1028     5.8635 151 HF  -1 0 0
 165 HF   1     3.2052     6.0570 150 HF  -1 0 0
 165 HF   1     3.3461     6.3231 160 HF  -1 0 0
 165 HF   1     3.3588     6.3471  51 O    0 0 0
 165 HF   1     3.3621     6.3535  42 O   -1 0 0
 165 HF   1     3.4643     6.5465 147 HF   0 0 0
 165 HF   1     3.4798     6.5758 156 HF   0 0 0
 165 HF   1     3.4898     6.5947 168 HF  -1 0 0
 165 HF   1     3.5825     6.7699 158 HF   0 0 0

 166 HF   1     1.8838     3.5598  49 O   -1 0 0
 166 HF   1     1.9362     3.6588  57 O    0 1 0
 166 HF   1     1.9617     3.7070  50 O   -1 1 0
 166 HF   1     2.0591     3.8912  39 O    0 0 0
 166 HF   1     2.1396     4.0432   4 O    0 0 0
 166 HF   1     2.3509     4.4425  36 O    0 1 0
 166 HF   1     2.6001     4.9134  85 SI   0 0 0
 166 HF   1     2.7528     5.2020  80 SI  -1 1 0
 166 HF   1     3.2947     6.2261 147 HF   0 0 0
 166 HF   1     3.3999     6.4248 151 HF  -1 1 0
 166 HF   1     3.4404     6.5014  58 O   -1 1 0
 166 HF   1     3.4909     6.5969 155 HF   0 0 0
 166 HF   1     3.4954     6.6054  59 O    0 0 0
 166 HF   1     3.5319     6.6743  74 SI  -1 0 0
 166 HF   1     3.5416     6.6927  47 O   -1 0 0

 167 HF   1     1.9902     3.7609  21 O    0 0 0
 167 HF   1     2.0477     3.8697  44 O    0 0 0
 167 HF   1     2.0927     3.9546  15 O    0 0 0
 167 HF   1     2.1801     4.1199  19 O    0 0 0
 167 HF   1     2.2051     4.1670  35 O    0 0 0
 167 HF   1     2.2212     4.1974  53 O    0 0 0
 167 HF   1     2.2606     4.2719  33 O    0 0 0
 167 HF   1     3.0423     5.7492 158 HF   0 0 0
 167 HF   1     3.2116     6.0690 140 HF   0 0 0
 167 HF   1     3.3544     6.3389 145 HF  -1 0 0
 167 HF   1     3.4518     6.5230 143 HF   0 0 0
 167 HF   1     3.5217     6.6550 153 HF   0 0 0
 167 HF   1     3.5494     6.7075  46 O    0 0 0
 167 HF   1     3.5524     6.7131 156 HF   0 0 0
 167 HF   1     3.6101     6.8220  37 O   -1 0 0

 168 HF   1     2.0044     3.7877  42 O    0 0 0
 168 HF   1     2.0130     3.8041  56 O    0 0 0
 168 HF   1     2.0602     3.8933  38 O    0 0 0
 168 HF   1     2.1048     3.9775  70 O    0 0 0
 168 HF   1     2.1063     3.9803  72 O    0 0 0
 168 HF   1     2.9182     5.5146  12 O    0 0 0
 168 HF   1     3.0790     5.8185 160 HF   0 0 0
 168 HF   1     3.3157     6.2657  48 O    0 0 0
 168 HF   1     3.3339     6.3002 163 HF   0 0 0
 168 HF   1     3.4105     6.4450 149 HF   0 0 0
 168 HF   1     3.4898     6.5947 165 HF   1 0 0
 168 HF   1     3.5094     6.6317 150 HF   0 0 0
 168 HF   1     3.5257     6.6626 151 HF   0 0 0
 168 HF   1     3.5369     6.6838  16 O    0 0 0
 168 HF   1     3.5469     6.7026 153 HF   0 0 0


 SYMMETRY ALLOWED INTERNAL DEGREE(S) OF FREEDOM: 501
 TTTTTTTTTTTTTTTTTTTTTTTTTTTTTT SYMM        TELAPSE       15.89 TCPU       15.87
 TTTTTTTTTTTTTTTTTTTTTTTTTTTTTT INT_SCREEN  TELAPSE       21.49 TCPU       21.47
 INFORMATION **** EXCBUF **** EXCH. BIPO BUFFER: WORDS USED =      360000
 WARNING **** EXCBUF **** EXCH. BIPO BUFFER TOO SMALL - TO AVOID I/O SET EXCHSIZE =    30617784

 DFT PARAMETERS

     ATOM       ELECTRONS   NET CHARGE   R(ANGSTROM)
   1   8  O       9.7778     -1.7778     1.32666667
  73  14  SI     14.0000      0.0000     1.17000000
 137 272  HF      8.0000      4.0000     0.71000000

 SIZE OF GRID=    3921936
 TTTTTTTTTTTTTTTTTTTTTTTTTTTTTT MAKE_GRID2  TELAPSE      550.70 TCPU      550.13
 BECKE WEIGHT FUNCTION
 RADSAFE =     2.00
 TOLERANCES - DENSITY:10**- 6; POTENTIAL:10**- 9; GRID WGT:10**-14

 RADIAL INTEGRATION  - INTERVALS (POINTS,UPPER LIMIT):            1( 75,  4.0*R)

 ANGULAR INTEGRATION - INTERVALS (ACCURACY LEVEL [N. POINTS] UPPER LIMIT):
  1(  4[  86]   0.2)  2(  8[ 194]   0.5)  3( 12[ 350]   0.9)  4( 16[ 974]   3.5)
  5( 12[ 350]9999.0)
 TTTTTTTTTTTTTTTTTTTTTTTTTTTTTT INT_CALC    TELAPSE      560.39 TCPU      559.81
 EEEEEEEEEE INT_CALC TERMINATION  DATE 21 10 2015 TIME 11:43:38.8

 *******************************************************************************
 Created with astools                                                            
 CRYSTAL - SCF - TYPE OF CALCULATION :  UNRESTRICTED OPEN SHELL
 *******************************************************************************

 CAPPA:IS1  2;IS2  2;IS3  2; K PTS MONK NET    8; SYMMOPS: K SPACE  2;G SPACE  1

 TTTTTTTTTTTTTTTTTTTTTTTTTTTTTT SDIK        TELAPSE      858.84 TCPU      857.93

 AAAAAAAAAAAAAAAAAAAAAAAAAAAAAAAAAAAAAAAAAAAAAAAAAAAAAAAAAAAAAAAAAAAAAAAAAAAAAAA
         ATOMIC WAVEFUNCTION(S)


 NUCLEAR CHARGE  8.0  SYMMETRY SPECIES            S    P
 N. ELECTRONS    9.8  NUMBER OF PRIMITIVE GTOS   10    6
                      NUMBER OF CONTRACTED GTOS   4    3
                      NUMBER OF CLOSED SHELLS     2    1
                      OPEN SHELL OCCUPATION       0    0

  ZNUC SCFIT  TOTAL HF ENERGY   KINETIC ENERGY   VIRIAL THEOREM ACCURACY
   8.0  26   -7.431960197E+01  7.496076567E+01 -1.991446676E+00  4.5E-06

 NUCLEAR CHARGE 14.0  SYMMETRY SPECIES            S    P
 N. ELECTRONS   14.0  NUMBER OF PRIMITIVE GTOS   19   11
                      NUMBER OF CONTRACTED GTOS   5    4
                      NUMBER OF CLOSED SHELLS     3    1
                      OPEN SHELL OCCUPATION       0    2

  ZNUC SCFIT  TOTAL HF ENERGY   KINETIC ENERGY   VIRIAL THEOREM ACCURACY
  14.0  10   -2.888293902E+02  2.890755171E+02 -1.999148572E+00  3.0E-06

 NUCLEAR CHARGE 12.0  SYMMETRY SPECIES            S    P
 N. ELECTRONS    8.0  NUMBER OF PRIMITIVE GTOS    8    6
                      NUMBER OF CONTRACTED GTOS   5    4
                      NUMBER OF CLOSED SHELLS     1    1
                      OPEN SHELL OCCUPATION       0    0

  ZNUC SCFIT  TOTAL HF ENERGY   KINETIC ENERGY   VIRIAL THEOREM ACCURACY
  12.0   5   -4.553754373E+01  1.235933936E+01 -4.684464226E+00  1.2E-06

 AAAAAAAAAAAAAAAAAAAAAAAAAAAAAAAAAAAAAAAAAAAAAAAAAAAAAAAAAAAAAAAAAAAAAAAAAAAAAAA

 CHARGE NORMALIZATION FACTOR   0.99145299
 TOTAL ATOMIC CHARGES:
   9.9145299   9.9145299   9.9145299   9.9145299   9.9145299   9.9145299
   9.9145299   9.9145299   9.9145299   9.9145299   9.9145299   9.9145299
   9.9145299   9.9145299   9.9145299   9.9145299   9.9145299   9.9145299
   9.9145299   9.9145299   9.9145299   9.9145299   9.9145299   9.9145299
   9.9145299   9.9145299   9.9145299   9.9145299   9.9145299   9.9145299
   9.9145299   9.9145299   9.9145299   9.9145299   9.9145299   9.9145299
   9.9145299   9.9145299   9.9145299   9.9145299   9.9145299   9.9145299
   9.9145299   9.9145299   9.9145299   9.9145299   9.9145299   9.9145299
   9.9145299   9.9145299   9.9145299   9.9145299   9.9145299   9.9145299
   9.9145299   9.9145299   9.9145299   9.9145299   9.9145299   9.9145299
   9.9145299   9.9145299   9.9145299   9.9145299   9.9145299   9.9145299
   9.9145299   9.9145299   9.9145299   9.9145299   9.9145299   9.9145299
  13.8803419  13.8803419  13.8803419  13.8803419  13.8803419  13.8803419
  13.8803419  13.8803419  13.8803419  13.8803419  13.8803419  13.8803419
  13.8803419  13.8803419  13.8803419  13.8803419  13.8803419  13.8803419
  13.8803419  13.8803419  13.8803419  13.8803419  13.8803419  13.8803419
  13.8803419  13.8803419  13.8803419  13.8803419  13.8803419  13.8803419
  13.8803419  13.8803419  13.8803419  13.8803419  13.8803419  13.8803419
  13.8803419  13.8803419  13.8803419  13.8803419  13.8803419  13.8803419
  13.8803419  13.8803419  13.8803419  13.8803419  13.8803419  13.8803419
  13.8803419  13.8803419  13.8803419  13.8803419  13.8803419  13.8803419
  13.8803419  13.8803419  13.8803419  13.8803419  13.8803419  13.8803419
  13.8803419  13.8803419  13.8803419  13.8803419   7.9316239   7.9316239
   7.9316239   7.9316239   7.9316239   7.9316239   7.9316239   7.9316239
   7.9316239   7.9316239   7.9316239   7.9316239   7.9316239   7.9316239
   7.9316239   7.9316239   7.9316239   7.9316239   7.9316239   7.9316239
   7.9316239   7.9316239   7.9316239   7.9316239   7.9316239   7.9316239
   7.9316239   7.9316239   7.9316239   7.9316239   7.9316239   7.9316239
 SUMMED SPIN DENSITY           0.00000000
 TOTAL ATOMIC SPINS  :
   0.0000000   0.0000000   0.0000000   0.0000000   0.0000000   0.0000000
   0.0000000   0.0000000   0.0000000   0.0000000   0.0000000   0.0000000
   0.0000000   0.0000000   0.0000000   0.0000000   0.0000000   0.0000000
   0.0000000   0.0000000   0.0000000   0.0000000   0.0000000   0.0000000
   0.0000000   0.0000000   0.0000000   0.0000000   0.0000000   0.0000000
   0.0000000   0.0000000   0.0000000   0.0000000   0.0000000   0.0000000
   0.0000000   0.0000000   0.0000000   0.0000000   0.0000000   0.0000000
   0.0000000   0.0000000   0.0000000   0.0000000   0.0000000   0.0000000
   0.0000000   0.0000000   0.0000000   0.0000000   0.0000000   0.0000000
   0.0000000   0.0000000   0.0000000   0.0000000   0.0000000   0.0000000
   0.0000000   0.0000000   0.0000000   0.0000000   0.0000000   0.0000000
   0.0000000   0.0000000   0.0000000   0.0000000   0.0000000   0.0000000
   0.0000000   0.0000000   0.0000000   0.0000000   0.0000000   0.0000000
   0.0000000   0.0000000   0.0000000   0.0000000   0.0000000   0.0000000
   0.0000000   0.0000000   0.0000000   0.0000000   0.0000000   0.0000000
   0.0000000   0.0000000   0.0000000   0.0000000   0.0000000   0.0000000
   0.0000000   0.0000000   0.0000000   0.0000000   0.0000000   0.0000000
   0.0000000   0.0000000   0.0000000   0.0000000   0.0000000   0.0000000
   0.0000000   0.0000000   0.0000000   0.0000000   0.0000000   0.0000000
   0.0000000   0.0000000   0.0000000   0.0000000   0.0000000   0.0000000
   0.0000000   0.0000000   0.0000000   0.0000000   0.0000000   0.0000000
   0.0000000   0.0000000   0.0000000   0.0000000   0.0000000   0.0000000
   0.0000000   0.0000000   0.0000000   0.0000000   0.0000000   0.0000000
   0.0000000   0.0000000   0.0000000   0.0000000   0.0000000   0.0000000
   0.0000000   0.0000000   0.0000000   0.0000000   0.0000000   0.0000000
   0.0000000   0.0000000   0.0000000   0.0000000   0.0000000   0.0000000
   0.0000000   0.0000000   0.0000000   0.0000000   0.0000000   0.0000000
   0.0000000   0.0000000   0.0000000   0.0000000   0.0000000   0.0000000
 TTTTTTTTTTTTTTTTTTTTTTTTTTTTTT MOQGAD      TELAPSE      861.54 TCPU      860.63
 WARNING **** GENBUD **** COUL. BIPO BUFFER TOO SMALL - TO AVOID I/O SET BIPOSIZE =     4485500
forrtl: error (69): process interrupted (SIGINT)
Image              PC                Routine            Line        Source             
crystal            0000000000B9F499  Unknown               Unknown  Unknown
crystal            0000000000B9DE10  Unknown               Unknown  Unknown
crystal            0000000000B505A2  Unknown               Unknown  Unknown
crystal            0000000000AFDEE3  Unknown               Unknown  Unknown
crystal            0000000000B03C35  Unknown               Unknown  Unknown
libpthread.so.0    00007FFFEC1E2850  Unknown               Unknown  Unknown
crystal            00000000008979EB  Unknown               Unknown  Unknown
crystal            00000000005FFFF1  Unknown               Unknown  Unknown
crystal            000000000053C391  Unknown               Unknown  Unknown
crystal            000000000070DE58  Unknown               Unknown  Unknown
crystal            0000000000439287  Unknown               Unknown  Unknown
crystal            0000000000438F86  Unknown               Unknown  Unknown
libc.so.6          00007FFFEBE75C36  Unknown               Unknown  Unknown
crystal            0000000000438E79  Unknown               Unknown  Unknown
