--------------------------------------------------------------------------
WARNING: Open MPI will create a shared memory backing file in a
directory that appears to be mounted on a network filesystem.
Creating the shared memory backup file on a network file system, such
as NFS or Lustre is not recommended -- it may cause excessive network
traffic to your file servers and/or cause shared memory traffic in
Open MPI to be much slower than expected.

You may want to check what the typical temporary directory is on your
node.  Possible sources of the location of this temporary directory
include the $TEMPDIR, $TEMP, and $TMP environment variables.

Note, too, that system administrators can set a list of filesystems
where Open MPI is disallowed from creating temporary files by settings
the MCA parameter "orte_no_session_dir".

  Local host: r2i7n8
  Fileame:    /ichec/work/scratch/tmp/231343.service1.cb3.ichec.ie/openmpi-sessions-emehes@r2i7n8_0/50150/1/shared_mem_pool.r2i7n8

You can set the MCA paramter shmem_mmap_enable_nfs_warning to 0 to
disable this message.
--------------------------------------------------------------------------
--------------------------------------------------------------------------
WARNING: It appears that your OpenFabrics subsystem is configured to only
allow registering part of your physical memory.  This can cause MPI jobs to
run with erratic performance, hang, and/or crash.

This may be caused by your OpenFabrics vendor limiting the amount of
physical memory that can be registered.  You should investigate the
relevant Linux kernel module parameters that control how much physical
memory can be registered, and increase them to allow registering all
physical memory on your machine.

See this Open MPI FAQ item for more information on these Linux kernel module
parameters:

    http://www.open-mpi.org/faq/?category=openfabrics#ib-locked-pages

  Local host:              r2i7n8
  Registerable memory:     32768 MiB
  Total memory:            65506 MiB

Your MPI job will continue, but may be behave poorly and/or hang.
--------------------------------------------------------------------------
         192 PROCESSORS WORKING

         
 *******************************************************************************
 *                                                                             *
 *                                CRYSTAL09                                    *
 *                              public : 2.0                                   *
 *                      December 10th, 2012 - parallel executable              *
 *                                                                             *
 *                                                                             *
 *                                                                             *
 *                              MAIN AUTHORS                                   *
 *                                                                             *
 *    R. DOVESI(1,10), V.R. SAUNDERS(2), C. ROETTI(1,10), R. ORLANDO (1,3),    *
 *  C.M. ZICOVICH-WILSON(1,4), F. PASCALE(5), B. CIVALLERI(1,10), K. DOLL(6),  *
 *       N.M. HARRISON(2,7), I. J. BUSH(2), Ph. D'ARCO(8), M. LLUNELL(9)       *
 *                                                                             *
 * (1) THEORETICAL CHEMISTRY GROUP - UNIVERSITA' DI TORINO - TORINO (ITALY)    *
 *      http://www.crystal.unito.it                                            *
 * (2) COMPUTATIONAL SCIENCE & ENGINEERING DEPARTMENT - STFC DARESBURY LABORATO*Y (UK)
 *     http://www.cse.stfc.ac.uk/cmg/CRYSTAL/                                  *
 * (3) UNIVERSITA' DEL PIEMONTE ORIENTALE - ALESSANDRIA (ITALY)                *
 * (4) UNIVERSIDAD AUTONOMA DEL ESTADO DE MORELOS - CUERNAVACA (MEXICO)        *
 * (5) UNIVERSITE' HENRI POINCARE' - NANCY (FRANCE)                            *
 * (6) MPI FUER FESTKOERPERFORSCHUNG - STUTTGART (GERMANY)                     *
 * (7) IMPERIAL COLLEGE - LONDON (UK)                                          *
 * (8) UNIVERSITE' PIERRE ET MARIE CURIE - PARIS (FRANCE)                      *
 * (9) UNIVERSIDAD DE BARCELONA - BARCELONA (SPAIN)                            *
 *(10) NIS - NANOSTRUCTURED INTERFACES AND SURFACES - TORINO (ITALY)           *
 *     http://www.crystal.unito.it                                             *
 *******************************************************************************
 EEEEEEEEEE STARTING  DATE 13 07 2014 TIME 10:47:34.8
 Created with astools                                                            

 CRYSTAL CALCULATION
 (INPUT ACCORDING TO THE INTERNATIONAL TABLES FOR X-RAY CRYSTALLOGRAPHY)
 CRYSTAL FAMILY                       :  TRICLINIC   
 CRYSTAL CLASS  (GROTH - 1921)        :  TRICLINIC PEDIAL                     

 SPACE GROUP (NONCENTROSYMMETRIC)     :  P 1             

 LATTICE PARAMETERS  (ANGSTROMS AND DEGREES) - CONVENTIONAL CELL
        A           B           C        ALPHA        BETA       GAMMA
    10.87570    10.77870    21.18660    90.00000    90.00000    90.00000


 NUMBER OF IRREDUCIBLE ATOMS IN THE CONVENTIONAL CELL:  148

 INPUT COORDINATES

 ATOM AT. N.              COORDINATES
   1   8     5.480240000000E-01  8.868220000000E-01  6.326670000000E-01
   2   8     3.553860000000E-01  3.301710000000E-01  6.201150000000E-01
   3   8     7.992030000000E-01  2.517230000000E-01  5.597780000000E-01
   4   8     3.456320000000E-01  5.692640000000E-01  5.838070000000E-01
   5   8     6.756780000000E-01  1.868280000000E-01  6.773850000000E-01
   6   8     8.507880000000E-01  6.764080000000E-01  5.748260000000E-01
   7   8     6.405790000000E-01  5.690530000000E-01  6.415580000000E-01
   8   8     2.390430000000E-01 -7.484000000000E-03  5.993190000000E-01
   9   8     1.073780000000E-01  3.605250000000E-01  6.419860000000E-01
  10   8     6.490920000000E-01  6.702400000000E-02  5.501790000000E-01
  11   8     9.153200000000E-01 -1.172200000000E-02  5.328670000000E-01
  12   8     6.040060000000E-01  3.378590000000E-01  5.543230000000E-01
  13   8     3.069900000000E-01  7.721880000000E-01  6.494860000000E-01
  14   8     1.110900000000E-01  6.310600000000E-01  5.966000000000E-01
  15   8     9.872080000000E-01  8.120480000000E-01  6.463440000000E-01
  16   8     2.217010000000E-01  7.628500000000E-01  5.242340000000E-01
  17   8     4.991600000000E-02  3.211460000000E-01  9.178090000000E-01
  18   8     2.701350000000E-01  3.754630000000E-01  7.376100000000E-01
  19   8     1.615640000000E-01  4.860720000000E-01  8.451540000000E-01
  20   8     5.001030000000E-01  2.092990000000E-01  8.033970000000E-01
  21   8     6.565530000000E-01  9.661000000000E-02  8.775630000000E-01
  22   8     7.957630000000E-01  4.361550000000E-01  7.235470000000E-01
  23   8     3.841170000000E-01  8.173040000000E-01  9.780930000000E-01
  24   8     8.322040000000E-01  8.345280000000E-01  9.596640000000E-01
  25   8     5.378430000000E-01  5.862840000000E-01  9.236950000000E-01
  26   8     1.944890000000E-01  6.079960000000E-01  7.346470000000E-01
  27   8     6.876760000000E-01  6.558820000000E-01  7.493600000000E-01
  28   8     5.260580000000E-01  8.556730000000E-01  8.761810000000E-01
  29   8     9.693710000000E-01  3.390100000000E-02  7.273000000000E-01
  30   8     4.690700000000E-02  7.713900000000E-01  7.660830000000E-01
  31   8     5.980190000000E-01  8.735640000000E-01  7.553640000000E-01
  32   8     8.341500000000E-01  8.582060000000E-01  7.292890000000E-01
  33   8     8.987360000000E-01  1.158630000000E-01  9.067050000000E-01
  34   8     3.473500000000E-02  4.139340000000E-01  7.573880000000E-01
  35   8     8.254390000000E-01  2.006720000000E-01  8.042980000000E-01
  36   8     3.359720000000E-01  6.504900000000E-01  8.975470000000E-01
  37   8     9.415630000000E-01  5.482930000000E-01  6.628170000000E-01
  38   8     7.569840000000E-01  5.243980000000E-01  9.410060000000E-01
  39   8     6.103900000000E-02  1.711510000000E-01  8.187660000000E-01
  40   8     7.616240000000E-01  2.802930000000E-01  9.419760000000E-01
  41   8     4.092950000000E-01  1.150890000000E-01  9.156500000000E-01
  42   8     3.901000000000E-01  9.898280000000E-01  7.098700000000E-01
  43   8     5.579170000000E-01  4.408870000000E-01  7.422210000000E-01
  44   8     1.144650000000E-01  1.002680000000E-01  9.502990000000E-01
  45   8     3.247290000000E-01  7.907700000000E-01  7.860410000000E-01
  46   8     3.746270000000E-01  4.322200000000E-01  9.675170000000E-01
  47   8     6.670740000000E-01  3.629720000000E-01  8.471520000000E-01
  48   8     7.858760000000E-01  7.856470000000E-01  8.419460000000E-01
  49   8     9.049890000000E-01  4.681360000000E-01  8.531430000000E-01
  50   8     6.463230000000E-01  6.997110000000E-01  8.352000000000E-03
  51   8     4.255050000000E-01  4.276130000000E-01  8.453820000000E-01
  52   8     3.650500000000E-02  5.627100000000E-01  9.453550000000E-01
  53   8     2.933100000000E-02  8.569550000000E-01  8.835660000000E-01
  54   8     1.603610000000E-01  9.142410000000E-01  7.120150000000E-01
  55   8     9.219420000000E-01  2.495290000000E-01  6.950400000000E-01
  56   8     2.315430000000E-01  1.572360000000E-01  6.876570000000E-01
  57  14     5.087600000000E-02  3.959200000000E-02  1.478100000000E-02
  58  14     2.981730000000E-01  3.192830000000E-01  5.892000000000E-03
  59  14     1.606620000000E-01  4.220230000000E-01  7.450000000000E-02
  60  14     4.098910000000E-01  1.807450000000E-01  7.219400000000E-02
  61  14     3.756700000000E-02  2.945180000000E-01  1.406410000000E-01
  62  14     2.887440000000E-01  4.861500000000E-02  1.387820000000E-01
  63  14     1.641290000000E-01  1.692340000000E-01  2.074580000000E-01
  64  14     4.097420000000E-01  4.158230000000E-01  2.132320000000E-01
  65  14     7.552900000000E-02  5.941660000000E-01  1.951900000000E-02
  66  14     2.690570000000E-01  7.548810000000E-01  2.178700000000E-02
  67  14     1.680310000000E-01  9.081090000000E-01  7.915900000000E-02
  68  14     3.751820000000E-01  6.913510000000E-01  1.080450000000E-01
  69  14     3.306500000000E-02  7.942620000000E-01  1.478080000000E-01
  70  14     2.726910000000E-01  5.302200000000E-01  1.524900000000E-01
  71  14     1.497110000000E-01  6.613310000000E-01  2.143070000000E-01
  72  14     4.089450000000E-01  9.243130000000E-01  2.094260000000E-01
  73  14     5.796010000000E-01  9.557800000000E-02  2.264100000000E-02
  74  14     7.442570000000E-01  2.455570000000E-01  1.871300000000E-02
  75  14     6.614070000000E-01  4.181280000000E-01  7.433100000000E-02
  76  14     9.139030000000E-01  1.620820000000E-01  7.602300000000E-02
  77  14     5.306570000000E-01  2.981620000000E-01  1.425520000000E-01
  78  14     7.929100000000E-01  4.181000000000E-02  1.469650000000E-01
  79  14     6.616170000000E-01  1.692270000000E-01  2.075340000000E-01
  80  14     9.134620000000E-01  4.170290000000E-01  2.097460000000E-01
  81  14     6.359820000000E-01  5.579810000000E-01  9.835550000000E-01
  82  14     7.644780000000E-01  7.895230000000E-01  2.494900000000E-02
  83  14     6.561010000000E-01  9.326350000000E-01  8.328600000000E-02
  84  14     9.085650000000E-01  6.731740000000E-01  8.200300000000E-02
  85  14     5.402500000000E-01  7.977870000000E-01  1.493800000000E-01
  86  14     7.863490000000E-01  5.397730000000E-01  1.446230000000E-01
  87  14     6.609630000000E-01  6.631640000000E-01  2.129480000000E-01
  88  14     9.114030000000E-01  9.176460000000E-01  2.149060000000E-01
  89  14     4.092200000000E-02  4.564700000000E-02  2.757170000000E-01
  90  14     2.873710000000E-01  2.919760000000E-01  2.773400000000E-01
  91  14     2.855000000000E-02  5.378950000000E-01  2.833620000000E-01
  92  14     2.841280000000E-01  7.902060000000E-01  2.705730000000E-01
  93  14     5.386550000000E-01  4.233200000000E-02  2.763630000000E-01
  94  14     7.878890000000E-01  2.916390000000E-01  2.727920000000E-01
  95  14     5.352430000000E-01  5.371730000000E-01  2.798680000000E-01
  96  14     7.829610000000E-01  7.910120000000E-01  2.784310000000E-01
  97  14     1.610270000000E-01  4.096680000000E-01  3.464390000000E-01
  98  14     4.189990000000E-01  1.718370000000E-01  3.413350000000E-01
  99  14     3.065600000000E-02  2.927330000000E-01  4.140630000000E-01
 100  14     2.967850000000E-01  3.798400000000E-02  3.981870000000E-01
 101  14     1.254970000000E-01  1.019550000000E-01  4.571370000000E-01
 102  14     4.501570000000E-01  4.544380000000E-01  4.621950000000E-01
 103  14     1.643900000000E-01  9.114620000000E-01  3.375470000000E-01
 104  14     4.082470000000E-01  6.721160000000E-01  3.396320000000E-01
 105  14     2.863900000000E-02  7.991260000000E-01  4.049060000000E-01
 106  14     2.857820000000E-01  5.478970000000E-01  4.059900000000E-01
 107  14     1.357040000000E-01  6.565250000000E-01  4.662680000000E-01
 108  14     4.252730000000E-01  9.417500000000E-01  4.737110000000E-01
 109  14     6.651320000000E-01  4.055430000000E-01  3.440530000000E-01
 110  14     9.118520000000E-01  1.715000000000E-01  3.398850000000E-01
 111  14     5.476650000000E-01  2.794230000000E-01  4.165940000000E-01
 112  14     7.761350000000E-01  6.257100000000E-02  4.060100000000E-01
 113  14     6.638250000000E-01  2.044920000000E-01  5.117910000000E-01
 114  14     9.428030000000E-01  4.537440000000E-01  4.795830000000E-01
 115  14     6.590690000000E-01  9.152290000000E-01  3.461030000000E-01
 116  14     8.997090000000E-01  6.662690000000E-01  3.461770000000E-01
 117  14     5.281950000000E-01  7.878280000000E-01  4.129330000000E-01
 118  14     7.845030000000E-01  5.321770000000E-01  4.117570000000E-01
 119  14     6.130230000000E-01  6.157230000000E-01  4.716650000000E-01
 120  14     9.471080000000E-01  9.774790000000E-01  4.554770000000E-01
 121  14     8.010320000000E-01  1.631010000000E-01  6.448460000000E-01
 122  14     2.326830000000E-01  3.054840000000E-01  6.698820000000E-01
 123  14     2.361130000000E-01  9.431480000000E-01  5.263470000000E-01
 124  14     7.059470000000E-01  6.306800000000E-01  5.768950000000E-01
 125  14     2.514520000000E-01  6.867640000000E-01  5.957600000000E-01
 126  14    -2.549100000000E-02  6.688010000000E-01  6.215140000000E-01
 127  14     7.476910000000E-01  4.044810000000E-01  5.604230000000E-01
 128  14     5.125470000000E-01  1.013010000000E+00  5.836650000000E-01
 129  14     8.124060000000E-01  9.643170000000E-01  5.890090000000E-01
 130  14     3.939790000000E-01  4.311510000000E-01  5.680400000000E-01
 131  14     6.745160000000E-01  5.222530000000E-01  7.148150000000E-01
 132  14     3.862100000000E-02  4.611410000000E-01  8.886020000000E-01
 133  14     4.869100000000E-01  8.788150000000E-01  7.043180000000E-01
 134  14     5.107920000000E-01  1.159230000000E-01  8.650610000000E-01
 135  14     4.343010000000E-01  7.687870000000E-01  9.098130000000E-01
 136  14     7.274830000000E-01  7.950100000000E-01  7.695340000000E-01
 137  14     1.717740000000E-01  4.747760000000E-01  7.670530000000E-01
 138  14     7.758870000000E-01  1.890750000000E-01  8.785400000000E-01
 139  14     3.596000000000E-02  1.762940000000E-01  8.961280000000E-01
 140  14     9.442440000000E-01  4.129530000000E-01  6.974420000000E-01
 141  14     9.500200000000E-01  1.629500000000E-01  7.646280000000E-01
 142  14     5.346590000000E-01  3.574800000000E-01  8.053660000000E-01
 143  14     4.057430000000E-01  5.168230000000E-01  9.057610000000E-01
 144  14     2.549510000000E-01  1.010887000000E+00  6.762590000000E-01
 145  14     1.994130000000E-01  7.609260000000E-01  7.512860000000E-01
 146  14     9.879780000000E-01  8.790400000000E-01  7.190150000000E-01
 147  14     8.928750000000E-01  8.260770000000E-01  8.908900000000E-01
 148  14     7.583580000000E-01  4.877520000000E-01  8.652780000000E-01

 *******************************************************************************

 << INFORMATION >>: FROM NOW ON, ALL COORDINATES REFER TO THE PRIMITIVE CELL

 *******************************************************************************

 LATTICE PARAMETERS  (ANGSTROMS AND DEGREES) - PRIMITIVE CELL
       A          B          C         ALPHA     BETA     GAMMA        VOLUME
   10.87570   10.77870   21.18660    90.00000  90.00000  90.00000   2483.618414

 COORDINATES OF THE EQUIVALENT ATOMS (FRACTIONAL UNITS)

 N. ATOM EQUIV AT. N.          X                  Y                  Z

   1   1   1    8 O    -4.51976000000E-01 -1.13178000000E-01 -3.67333000000E-01

   2   2   1    8 O     3.55386000000E-01  3.30171000000E-01 -3.79885000000E-01

   3   3   1    8 O    -2.00797000000E-01  2.51723000000E-01 -4.40222000000E-01

   4   4   1    8 O     3.45632000000E-01 -4.30736000000E-01 -4.16193000000E-01

   5   5   1    8 O    -3.24322000000E-01  1.86828000000E-01 -3.22615000000E-01

   6   6   1    8 O    -1.49212000000E-01 -3.23592000000E-01 -4.25174000000E-01

   7   7   1    8 O    -3.59421000000E-01 -4.30947000000E-01 -3.58442000000E-01

   8   8   1    8 O     2.39043000000E-01 -7.48400000000E-03 -4.00681000000E-01

   9   9   1    8 O     1.07378000000E-01  3.60525000000E-01 -3.58014000000E-01

  10  10   1    8 O    -3.50908000000E-01  6.70240000000E-02 -4.49821000000E-01

  11  11   1    8 O    -8.46800000000E-02 -1.17220000000E-02 -4.67133000000E-01

  12  12   1    8 O    -3.95994000000E-01  3.37859000000E-01 -4.45677000000E-01

  13  13   1    8 O     3.06990000000E-01 -2.27812000000E-01 -3.50514000000E-01

  14  14   1    8 O     1.11090000000E-01 -3.68940000000E-01 -4.03400000000E-01

  15  15   1    8 O    -1.27920000000E-02 -1.87952000000E-01 -3.53656000000E-01

  16  16   1    8 O     2.21701000000E-01 -2.37150000000E-01 -4.75766000000E-01

  17  17   1    8 O     4.99160000000E-02  3.21146000000E-01 -8.21910000000E-02

  18  18   1    8 O     2.70135000000E-01  3.75463000000E-01 -2.62390000000E-01

  19  19   1    8 O     1.61564000000E-01  4.86072000000E-01 -1.54846000000E-01

  20  20   1    8 O    -4.99897000000E-01  2.09299000000E-01 -1.96603000000E-01

  21  21   1    8 O    -3.43447000000E-01  9.66100000000E-02 -1.22437000000E-01

  22  22   1    8 O    -2.04237000000E-01  4.36155000000E-01 -2.76453000000E-01

  23  23   1    8 O     3.84117000000E-01 -1.82696000000E-01 -2.19070000000E-02

  24  24   1    8 O    -1.67796000000E-01 -1.65472000000E-01 -4.03360000000E-02

  25  25   1    8 O    -4.62157000000E-01 -4.13716000000E-01 -7.63050000000E-02

  26  26   1    8 O     1.94489000000E-01 -3.92004000000E-01 -2.65353000000E-01

  27  27   1    8 O    -3.12324000000E-01 -3.44118000000E-01 -2.50640000000E-01

  28  28   1    8 O    -4.73942000000E-01 -1.44327000000E-01 -1.23819000000E-01

  29  29   1    8 O    -3.06290000000E-02  3.39010000000E-02 -2.72700000000E-01

  30  30   1    8 O     4.69070000000E-02 -2.28610000000E-01 -2.33917000000E-01

  31  31   1    8 O    -4.01981000000E-01 -1.26436000000E-01 -2.44636000000E-01

  32  32   1    8 O    -1.65850000000E-01 -1.41794000000E-01 -2.70711000000E-01

  33  33   1    8 O    -1.01264000000E-01  1.15863000000E-01 -9.32950000000E-02

  34  34   1    8 O     3.47350000000E-02  4.13934000000E-01 -2.42612000000E-01

  35  35   1    8 O    -1.74561000000E-01  2.00672000000E-01 -1.95702000000E-01

  36  36   1    8 O     3.35972000000E-01 -3.49510000000E-01 -1.02453000000E-01

  37  37   1    8 O    -5.84370000000E-02 -4.51707000000E-01 -3.37183000000E-01

  38  38   1    8 O    -2.43016000000E-01 -4.75602000000E-01 -5.89940000000E-02

  39  39   1    8 O     6.10390000000E-02  1.71151000000E-01 -1.81234000000E-01

  40  40   1    8 O    -2.38376000000E-01  2.80293000000E-01 -5.80240000000E-02

  41  41   1    8 O     4.09295000000E-01  1.15089000000E-01 -8.43500000000E-02

  42  42   1    8 O     3.90100000000E-01 -1.01720000000E-02 -2.90130000000E-01

  43  43   1    8 O    -4.42083000000E-01  4.40887000000E-01 -2.57779000000E-01

  44  44   1    8 O     1.14465000000E-01  1.00268000000E-01 -4.97010000000E-02

  45  45   1    8 O     3.24729000000E-01 -2.09230000000E-01 -2.13959000000E-01

  46  46   1    8 O     3.74627000000E-01  4.32220000000E-01 -3.24830000000E-02

  47  47   1    8 O    -3.32926000000E-01  3.62972000000E-01 -1.52848000000E-01

  48  48   1    8 O    -2.14124000000E-01 -2.14353000000E-01 -1.58054000000E-01

  49  49   1    8 O    -9.50110000000E-02  4.68136000000E-01 -1.46857000000E-01

  50  50   1    8 O    -3.53677000000E-01 -3.00289000000E-01  8.35200000000E-03

  51  51   1    8 O     4.25505000000E-01  4.27613000000E-01 -1.54618000000E-01

  52  52   1    8 O     3.65050000000E-02 -4.37290000000E-01 -5.46450000000E-02

  53  53   1    8 O     2.93310000000E-02 -1.43045000000E-01 -1.16434000000E-01

  54  54   1    8 O     1.60361000000E-01 -8.57590000000E-02 -2.87985000000E-01

  55  55   1    8 O    -7.80580000000E-02  2.49529000000E-01 -3.04960000000E-01

  56  56   1    8 O     2.31543000000E-01  1.57236000000E-01 -3.12343000000E-01

  57  57   1   14 SI    5.08760000000E-02  3.95920000000E-02  1.47810000000E-02

  58  58   1   14 SI    2.98173000000E-01  3.19283000000E-01  5.89200000000E-03

  59  59   1   14 SI    1.60662000000E-01  4.22023000000E-01  7.45000000000E-02

  60  60   1   14 SI    4.09891000000E-01  1.80745000000E-01  7.21940000000E-02

  61  61   1   14 SI    3.75670000000E-02  2.94518000000E-01  1.40641000000E-01

  62  62   1   14 SI    2.88744000000E-01  4.86150000000E-02  1.38782000000E-01

  63  63   1   14 SI    1.64129000000E-01  1.69234000000E-01  2.07458000000E-01

  64  64   1   14 SI    4.09742000000E-01  4.15823000000E-01  2.13232000000E-01

  65  65   1   14 SI    7.55290000000E-02 -4.05834000000E-01  1.95190000000E-02

  66  66   1   14 SI    2.69057000000E-01 -2.45119000000E-01  2.17870000000E-02

  67  67   1   14 SI    1.68031000000E-01 -9.18910000000E-02  7.91590000000E-02

  68  68   1   14 SI    3.75182000000E-01 -3.08649000000E-01  1.08045000000E-01

  69  69   1   14 SI    3.30650000000E-02 -2.05738000000E-01  1.47808000000E-01

  70  70   1   14 SI    2.72691000000E-01 -4.69780000000E-01  1.52490000000E-01

  71  71   1   14 SI    1.49711000000E-01 -3.38669000000E-01  2.14307000000E-01

  72  72   1   14 SI    4.08945000000E-01 -7.56870000000E-02  2.09426000000E-01

  73  73   1   14 SI   -4.20399000000E-01  9.55780000000E-02  2.26410000000E-02

  74  74   1   14 SI   -2.55743000000E-01  2.45557000000E-01  1.87130000000E-02

  75  75   1   14 SI   -3.38593000000E-01  4.18128000000E-01  7.43310000000E-02

  76  76   1   14 SI   -8.60970000000E-02  1.62082000000E-01  7.60230000000E-02

  77  77   1   14 SI   -4.69343000000E-01  2.98162000000E-01  1.42552000000E-01

  78  78   1   14 SI   -2.07090000000E-01  4.18100000000E-02  1.46965000000E-01

  79  79   1   14 SI   -3.38383000000E-01  1.69227000000E-01  2.07534000000E-01

  80  80   1   14 SI   -8.65380000000E-02  4.17029000000E-01  2.09746000000E-01

  81  81   1   14 SI   -3.64018000000E-01 -4.42019000000E-01 -1.64450000000E-02

  82  82   1   14 SI   -2.35522000000E-01 -2.10477000000E-01  2.49490000000E-02

  83  83   1   14 SI   -3.43899000000E-01 -6.73650000000E-02  8.32860000000E-02

  84  84   1   14 SI   -9.14350000000E-02 -3.26826000000E-01  8.20030000000E-02

  85  85   1   14 SI   -4.59750000000E-01 -2.02213000000E-01  1.49380000000E-01

  86  86   1   14 SI   -2.13651000000E-01 -4.60227000000E-01  1.44623000000E-01

  87  87   1   14 SI   -3.39037000000E-01 -3.36836000000E-01  2.12948000000E-01

  88  88   1   14 SI   -8.85970000000E-02 -8.23540000000E-02  2.14906000000E-01

  89  89   1   14 SI    4.09220000000E-02  4.56470000000E-02  2.75717000000E-01

  90  90   1   14 SI    2.87371000000E-01  2.91976000000E-01  2.77340000000E-01

  91  91   1   14 SI    2.85500000000E-02 -4.62105000000E-01  2.83362000000E-01

  92  92   1   14 SI    2.84128000000E-01 -2.09794000000E-01  2.70573000000E-01

  93  93   1   14 SI   -4.61345000000E-01  4.23320000000E-02  2.76363000000E-01

  94  94   1   14 SI   -2.12111000000E-01  2.91639000000E-01  2.72792000000E-01

  95  95   1   14 SI   -4.64757000000E-01 -4.62827000000E-01  2.79868000000E-01

  96  96   1   14 SI   -2.17039000000E-01 -2.08988000000E-01  2.78431000000E-01

  97  97   1   14 SI    1.61027000000E-01  4.09668000000E-01  3.46439000000E-01

  98  98   1   14 SI    4.18999000000E-01  1.71837000000E-01  3.41335000000E-01

  99  99   1   14 SI    3.06560000000E-02  2.92733000000E-01  4.14063000000E-01

 100 100   1   14 SI    2.96785000000E-01  3.79840000000E-02  3.98187000000E-01

 101 101   1   14 SI    1.25497000000E-01  1.01955000000E-01  4.57137000000E-01

 102 102   1   14 SI    4.50157000000E-01  4.54438000000E-01  4.62195000000E-01

 103 103   1   14 SI    1.64390000000E-01 -8.85380000000E-02  3.37547000000E-01

 104 104   1   14 SI    4.08247000000E-01 -3.27884000000E-01  3.39632000000E-01

 105 105   1   14 SI    2.86390000000E-02 -2.00874000000E-01  4.04906000000E-01

 106 106   1   14 SI    2.85782000000E-01 -4.52103000000E-01  4.05990000000E-01

 107 107   1   14 SI    1.35704000000E-01 -3.43475000000E-01  4.66268000000E-01

 108 108   1   14 SI    4.25273000000E-01 -5.82500000000E-02  4.73711000000E-01

 109 109   1   14 SI   -3.34868000000E-01  4.05543000000E-01  3.44053000000E-01

 110 110   1   14 SI   -8.81480000000E-02  1.71500000000E-01  3.39885000000E-01

 111 111   1   14 SI   -4.52335000000E-01  2.79423000000E-01  4.16594000000E-01

 112 112   1   14 SI   -2.23865000000E-01  6.25710000000E-02  4.06010000000E-01

 113 113   1   14 SI   -3.36175000000E-01  2.04492000000E-01 -4.88209000000E-01

 114 114   1   14 SI   -5.71970000000E-02  4.53744000000E-01  4.79583000000E-01

 115 115   1   14 SI   -3.40931000000E-01 -8.47710000000E-02  3.46103000000E-01

 116 116   1   14 SI   -1.00291000000E-01 -3.33731000000E-01  3.46177000000E-01

 117 117   1   14 SI   -4.71805000000E-01 -2.12172000000E-01  4.12933000000E-01

 118 118   1   14 SI   -2.15497000000E-01 -4.67823000000E-01  4.11757000000E-01

 119 119   1   14 SI   -3.86977000000E-01 -3.84277000000E-01  4.71665000000E-01

 120 120   1   14 SI   -5.28920000000E-02 -2.25210000000E-02  4.55477000000E-01

 121 121   1   14 SI   -1.98968000000E-01  1.63101000000E-01 -3.55154000000E-01

 122 122   1   14 SI    2.32683000000E-01  3.05484000000E-01 -3.30118000000E-01

 123 123   1   14 SI    2.36113000000E-01 -5.68520000000E-02 -4.73653000000E-01

 124 124   1   14 SI   -2.94053000000E-01 -3.69320000000E-01 -4.23105000000E-01

 125 125   1   14 SI    2.51452000000E-01 -3.13236000000E-01 -4.04240000000E-01

 126 126   1   14 SI   -2.54910000000E-02 -3.31199000000E-01 -3.78486000000E-01

 127 127   1   14 SI   -2.52309000000E-01  4.04481000000E-01 -4.39577000000E-01

 128 128   1   14 SI   -4.87453000000E-01  1.30100000000E-02 -4.16335000000E-01

 129 129   1   14 SI   -1.87594000000E-01 -3.56830000000E-02 -4.10991000000E-01

 130 130   1   14 SI    3.93979000000E-01  4.31151000000E-01 -4.31960000000E-01

 131 131   1   14 SI   -3.25484000000E-01 -4.77747000000E-01 -2.85185000000E-01

 132 132   1   14 SI    3.86210000000E-02  4.61141000000E-01 -1.11398000000E-01

 133 133   1   14 SI    4.86910000000E-01 -1.21185000000E-01 -2.95682000000E-01

 134 134   1   14 SI   -4.89208000000E-01  1.15923000000E-01 -1.34939000000E-01

 135 135   1   14 SI    4.34301000000E-01 -2.31213000000E-01 -9.01870000000E-02

 136 136   1   14 SI   -2.72517000000E-01 -2.04990000000E-01 -2.30466000000E-01

 137 137   1   14 SI    1.71774000000E-01  4.74776000000E-01 -2.32947000000E-01

 138 138   1   14 SI   -2.24113000000E-01  1.89075000000E-01 -1.21460000000E-01

 139 139   1   14 SI    3.59600000000E-02  1.76294000000E-01 -1.03872000000E-01

 140 140   1   14 SI   -5.57560000000E-02  4.12953000000E-01 -3.02558000000E-01

 141 141   1   14 SI   -4.99800000000E-02  1.62950000000E-01 -2.35372000000E-01

 142 142   1   14 SI   -4.65341000000E-01  3.57480000000E-01 -1.94634000000E-01

 143 143   1   14 SI    4.05743000000E-01 -4.83177000000E-01 -9.42390000000E-02

 144 144   1   14 SI    2.54951000000E-01  1.08870000000E-02 -3.23741000000E-01

 145 145   1   14 SI    1.99413000000E-01 -2.39074000000E-01 -2.48714000000E-01

 146 146   1   14 SI   -1.20220000000E-02 -1.20960000000E-01 -2.80985000000E-01

 147 147   1   14 SI   -1.07125000000E-01 -1.73923000000E-01 -1.09110000000E-01

 148 148   1   14 SI   -2.41642000000E-01  4.87752000000E-01 -1.34722000000E-01

 NUMBER OF SYMMETRY OPERATORS         :    1
 *******************************************************************************
 * GEOMETRY EDITING - INPUT COORDINATES ARE GIVEN IN ANGSTROM         
 *******************************************************************************

 GCALCO - MAX INDICES DIRECT LATTICE VECTOR    18    19     9
 NO.OF VECTORS CREATED 6999 STARS 1059 RMAX   303.51649 BOHR

 GEOMETRY FOR WAVE FUNCTION - DIMENSIONALITY OF THE SYSTEM    3
 (NON PERIODIC DIRECTION: LATTICE PARAMETER FORMALLY SET TO 500)
 *******************************************************************************
 LATTICE PARAMETERS (ANGSTROMS AND DEGREES) - BOHR = 0.5291772083 ANGSTROM
 PRIMITIVE CELL - CENTRING CODE 1/0 VOLUME=  2483.618414 - DENSITY  2.320 g/cm^3
         A              B              C           ALPHA      BETA       GAMMA 
    10.87570000    10.77870000    21.18660000    90.000000  90.000000  90.000000
 *******************************************************************************
 ATOMS IN THE ASYMMETRIC UNIT  148 - ATOMS IN THE UNIT CELL:  148
     ATOM              X/A                 Y/B                 Z/C    
 *******************************************************************************
   1 T   8 O    -4.519760000000E-01 -1.131780000000E-01 -3.673330000000E-01
   2 T   8 O     3.553860000000E-01  3.301710000000E-01 -3.798850000000E-01
   3 T   8 O    -2.007970000000E-01  2.517230000000E-01 -4.402220000000E-01
   4 T   8 O     3.456320000000E-01 -4.307360000000E-01 -4.161930000000E-01
   5 T   8 O    -3.243220000000E-01  1.868280000000E-01 -3.226150000000E-01
   6 T   8 O    -1.492120000000E-01 -3.235920000000E-01 -4.251740000000E-01
   7 T   8 O    -3.594210000000E-01 -4.309470000000E-01 -3.584420000000E-01
   8 T   8 O     2.390430000000E-01 -7.484000000000E-03 -4.006810000000E-01
   9 T   8 O     1.073780000000E-01  3.605250000000E-01 -3.580140000000E-01
  10 T   8 O    -3.509080000000E-01  6.702400000000E-02 -4.498210000000E-01
  11 T   8 O    -8.468000000000E-02 -1.172200000000E-02 -4.671330000000E-01
  12 T   8 O    -3.959940000000E-01  3.378590000000E-01 -4.456770000000E-01
  13 T   8 O     3.069900000000E-01 -2.278120000000E-01 -3.505140000000E-01
  14 T   8 O     1.110900000000E-01 -3.689400000000E-01 -4.034000000000E-01
  15 T   8 O    -1.279200000000E-02 -1.879520000000E-01 -3.536560000000E-01
  16 T   8 O     2.217010000000E-01 -2.371500000000E-01 -4.757660000000E-01
  17 T   8 O     4.991600000000E-02  3.211460000000E-01 -8.219100000000E-02
  18 T   8 O     2.701350000000E-01  3.754630000000E-01 -2.623900000000E-01
  19 T   8 O     1.615640000000E-01  4.860720000000E-01 -1.548460000000E-01
  20 T   8 O    -4.998970000000E-01  2.092990000000E-01 -1.966030000000E-01
  21 T   8 O    -3.434470000000E-01  9.661000000000E-02 -1.224370000000E-01
  22 T   8 O    -2.042370000000E-01  4.361550000000E-01 -2.764530000000E-01
  23 T   8 O     3.841170000000E-01 -1.826960000000E-01 -2.190700000000E-02
  24 T   8 O    -1.677960000000E-01 -1.654720000000E-01 -4.033600000000E-02
  25 T   8 O    -4.621570000000E-01 -4.137160000000E-01 -7.630500000000E-02
  26 T   8 O     1.944890000000E-01 -3.920040000000E-01 -2.653530000000E-01
  27 T   8 O    -3.123240000000E-01 -3.441180000000E-01 -2.506400000000E-01
  28 T   8 O    -4.739420000000E-01 -1.443270000000E-01 -1.238190000000E-01
  29 T   8 O    -3.062900000000E-02  3.390100000000E-02 -2.727000000000E-01
  30 T   8 O     4.690700000000E-02 -2.286100000000E-01 -2.339170000000E-01
  31 T   8 O    -4.019810000000E-01 -1.264360000000E-01 -2.446360000000E-01
  32 T   8 O    -1.658500000000E-01 -1.417940000000E-01 -2.707110000000E-01
  33 T   8 O    -1.012640000000E-01  1.158630000000E-01 -9.329500000000E-02
  34 T   8 O     3.473500000000E-02  4.139340000000E-01 -2.426120000000E-01
  35 T   8 O    -1.745610000000E-01  2.006720000000E-01 -1.957020000000E-01
  36 T   8 O     3.359720000000E-01 -3.495100000000E-01 -1.024530000000E-01
  37 T   8 O    -5.843700000000E-02 -4.517070000000E-01 -3.371830000000E-01
  38 T   8 O    -2.430160000000E-01 -4.756020000000E-01 -5.899400000000E-02
  39 T   8 O     6.103900000000E-02  1.711510000000E-01 -1.812340000000E-01
  40 T   8 O    -2.383760000000E-01  2.802930000000E-01 -5.802400000000E-02
  41 T   8 O     4.092950000000E-01  1.150890000000E-01 -8.435000000000E-02
  42 T   8 O     3.901000000000E-01 -1.017200000000E-02 -2.901300000000E-01
  43 T   8 O    -4.420830000000E-01  4.408870000000E-01 -2.577790000000E-01
  44 T   8 O     1.144650000000E-01  1.002680000000E-01 -4.970100000000E-02
  45 T   8 O     3.247290000000E-01 -2.092300000000E-01 -2.139590000000E-01
  46 T   8 O     3.746270000000E-01  4.322200000000E-01 -3.248300000000E-02
  47 T   8 O    -3.329260000000E-01  3.629720000000E-01 -1.528480000000E-01
  48 T   8 O    -2.141240000000E-01 -2.143530000000E-01 -1.580540000000E-01
  49 T   8 O    -9.501100000000E-02  4.681360000000E-01 -1.468570000000E-01
  50 T   8 O    -3.536770000000E-01 -3.002890000000E-01  8.352000000000E-03
  51 T   8 O     4.255050000000E-01  4.276130000000E-01 -1.546180000000E-01
  52 T   8 O     3.650500000000E-02 -4.372900000000E-01 -5.464500000000E-02
  53 T   8 O     2.933100000000E-02 -1.430450000000E-01 -1.164340000000E-01
  54 T   8 O     1.603610000000E-01 -8.575900000000E-02 -2.879850000000E-01
  55 T   8 O    -7.805800000000E-02  2.495290000000E-01 -3.049600000000E-01
  56 T   8 O     2.315430000000E-01  1.572360000000E-01 -3.123430000000E-01
  57 T  14 SI    5.087600000000E-02  3.959200000000E-02  1.478100000000E-02
  58 T  14 SI    2.981730000000E-01  3.192830000000E-01  5.892000000000E-03
  59 T  14 SI    1.606620000000E-01  4.220230000000E-01  7.450000000000E-02
  60 T  14 SI    4.098910000000E-01  1.807450000000E-01  7.219400000000E-02
  61 T  14 SI    3.756700000000E-02  2.945180000000E-01  1.406410000000E-01
  62 T  14 SI    2.887440000000E-01  4.861500000000E-02  1.387820000000E-01
  63 T  14 SI    1.641290000000E-01  1.692340000000E-01  2.074580000000E-01
  64 T  14 SI    4.097420000000E-01  4.158230000000E-01  2.132320000000E-01
  65 T  14 SI    7.552900000000E-02 -4.058340000000E-01  1.951900000000E-02
  66 T  14 SI    2.690570000000E-01 -2.451190000000E-01  2.178700000000E-02
  67 T  14 SI    1.680310000000E-01 -9.189100000000E-02  7.915900000000E-02
  68 T  14 SI    3.751820000000E-01 -3.086490000000E-01  1.080450000000E-01
  69 T  14 SI    3.306500000000E-02 -2.057380000000E-01  1.478080000000E-01
  70 T  14 SI    2.726910000000E-01 -4.697800000000E-01  1.524900000000E-01
  71 T  14 SI    1.497110000000E-01 -3.386690000000E-01  2.143070000000E-01
  72 T  14 SI    4.089450000000E-01 -7.568700000000E-02  2.094260000000E-01
  73 T  14 SI   -4.203990000000E-01  9.557800000000E-02  2.264100000000E-02
  74 T  14 SI   -2.557430000000E-01  2.455570000000E-01  1.871300000000E-02
  75 T  14 SI   -3.385930000000E-01  4.181280000000E-01  7.433100000000E-02
  76 T  14 SI   -8.609700000000E-02  1.620820000000E-01  7.602300000000E-02
  77 T  14 SI   -4.693430000000E-01  2.981620000000E-01  1.425520000000E-01
  78 T  14 SI   -2.070900000000E-01  4.181000000000E-02  1.469650000000E-01
  79 T  14 SI   -3.383830000000E-01  1.692270000000E-01  2.075340000000E-01
  80 T  14 SI   -8.653800000000E-02  4.170290000000E-01  2.097460000000E-01
  81 T  14 SI   -3.640180000000E-01 -4.420190000000E-01 -1.644500000000E-02
  82 T  14 SI   -2.355220000000E-01 -2.104770000000E-01  2.494900000000E-02
  83 T  14 SI   -3.438990000000E-01 -6.736500000000E-02  8.328600000000E-02
  84 T  14 SI   -9.143500000000E-02 -3.268260000000E-01  8.200300000000E-02
  85 T  14 SI   -4.597500000000E-01 -2.022130000000E-01  1.493800000000E-01
  86 T  14 SI   -2.136510000000E-01 -4.602270000000E-01  1.446230000000E-01
  87 T  14 SI   -3.390370000000E-01 -3.368360000000E-01  2.129480000000E-01
  88 T  14 SI   -8.859700000000E-02 -8.235400000000E-02  2.149060000000E-01
  89 T  14 SI    4.092200000000E-02  4.564700000000E-02  2.757170000000E-01
  90 T  14 SI    2.873710000000E-01  2.919760000000E-01  2.773400000000E-01
  91 T  14 SI    2.855000000000E-02 -4.621050000000E-01  2.833620000000E-01
  92 T  14 SI    2.841280000000E-01 -2.097940000000E-01  2.705730000000E-01
  93 T  14 SI   -4.613450000000E-01  4.233200000000E-02  2.763630000000E-01
  94 T  14 SI   -2.121110000000E-01  2.916390000000E-01  2.727920000000E-01
  95 T  14 SI   -4.647570000000E-01 -4.628270000000E-01  2.798680000000E-01
  96 T  14 SI   -2.170390000000E-01 -2.089880000000E-01  2.784310000000E-01
  97 T  14 SI    1.610270000000E-01  4.096680000000E-01  3.464390000000E-01
  98 T  14 SI    4.189990000000E-01  1.718370000000E-01  3.413350000000E-01
  99 T  14 SI    3.065600000000E-02  2.927330000000E-01  4.140630000000E-01
 100 T  14 SI    2.967850000000E-01  3.798400000000E-02  3.981870000000E-01
 101 T  14 SI    1.254970000000E-01  1.019550000000E-01  4.571370000000E-01
 102 T  14 SI    4.501570000000E-01  4.544380000000E-01  4.621950000000E-01
 103 T  14 SI    1.643900000000E-01 -8.853800000000E-02  3.375470000000E-01
 104 T  14 SI    4.082470000000E-01 -3.278840000000E-01  3.396320000000E-01
 105 T  14 SI    2.863900000000E-02 -2.008740000000E-01  4.049060000000E-01
 106 T  14 SI    2.857820000000E-01 -4.521030000000E-01  4.059900000000E-01
 107 T  14 SI    1.357040000000E-01 -3.434750000000E-01  4.662680000000E-01
 108 T  14 SI    4.252730000000E-01 -5.825000000000E-02  4.737110000000E-01
 109 T  14 SI   -3.348680000000E-01  4.055430000000E-01  3.440530000000E-01
 110 T  14 SI   -8.814800000000E-02  1.715000000000E-01  3.398850000000E-01
 111 T  14 SI   -4.523350000000E-01  2.794230000000E-01  4.165940000000E-01
 112 T  14 SI   -2.238650000000E-01  6.257100000000E-02  4.060100000000E-01
 113 T  14 SI   -3.361750000000E-01  2.044920000000E-01 -4.882090000000E-01
 114 T  14 SI   -5.719700000000E-02  4.537440000000E-01  4.795830000000E-01
 115 T  14 SI   -3.409310000000E-01 -8.477100000000E-02  3.461030000000E-01
 116 T  14 SI   -1.002910000000E-01 -3.337310000000E-01  3.461770000000E-01
 117 T  14 SI   -4.718050000000E-01 -2.121720000000E-01  4.129330000000E-01
 118 T  14 SI   -2.154970000000E-01 -4.678230000000E-01  4.117570000000E-01
 119 T  14 SI   -3.869770000000E-01 -3.842770000000E-01  4.716650000000E-01
 120 T  14 SI   -5.289200000000E-02 -2.252100000000E-02  4.554770000000E-01
 121 T  14 SI   -1.989680000000E-01  1.631010000000E-01 -3.551540000000E-01
 122 T  14 SI    2.326830000000E-01  3.054840000000E-01 -3.301180000000E-01
 123 T  14 SI    2.361130000000E-01 -5.685200000000E-02 -4.736530000000E-01
 124 T  14 SI   -2.940530000000E-01 -3.693200000000E-01 -4.231050000000E-01
 125 T  14 SI    2.514520000000E-01 -3.132360000000E-01 -4.042400000000E-01
 126 T  14 SI   -2.549100000000E-02 -3.311990000000E-01 -3.784860000000E-01
 127 T  14 SI   -2.523090000000E-01  4.044810000000E-01 -4.395770000000E-01
 128 T  14 SI   -4.874530000000E-01  1.301000000000E-02 -4.163350000000E-01
 129 T  14 SI   -1.875940000000E-01 -3.568300000000E-02 -4.109910000000E-01
 130 T  14 SI    3.939790000000E-01  4.311510000000E-01 -4.319600000000E-01
 131 T  14 SI   -3.254840000000E-01 -4.777470000000E-01 -2.851850000000E-01
 132 T  14 SI    3.862100000000E-02  4.611410000000E-01 -1.113980000000E-01
 133 T  14 SI    4.869100000000E-01 -1.211850000000E-01 -2.956820000000E-01
 134 T  14 SI   -4.892080000000E-01  1.159230000000E-01 -1.349390000000E-01
 135 T  14 SI    4.343010000000E-01 -2.312130000000E-01 -9.018700000000E-02
 136 T  14 SI   -2.725170000000E-01 -2.049900000000E-01 -2.304660000000E-01
 137 T  14 SI    1.717740000000E-01  4.747760000000E-01 -2.329470000000E-01
 138 T  14 SI   -2.241130000000E-01  1.890750000000E-01 -1.214600000000E-01
 139 T  14 SI    3.596000000000E-02  1.762940000000E-01 -1.038720000000E-01
 140 T  14 SI   -5.575600000000E-02  4.129530000000E-01 -3.025580000000E-01
 141 T  14 SI   -4.998000000000E-02  1.629500000000E-01 -2.353720000000E-01
 142 T  14 SI   -4.653410000000E-01  3.574800000000E-01 -1.946340000000E-01
 143 T  14 SI    4.057430000000E-01 -4.831770000000E-01 -9.423900000000E-02
 144 T  14 SI    2.549510000000E-01  1.088700000000E-02 -3.237410000000E-01
 145 T  14 SI    1.994130000000E-01 -2.390740000000E-01 -2.487140000000E-01
 146 T  14 SI   -1.202200000000E-02 -1.209600000000E-01 -2.809850000000E-01
 147 T  14 SI   -1.071250000000E-01 -1.739230000000E-01 -1.091100000000E-01
 148 T  14 SI   -2.416420000000E-01  4.877520000000E-01 -1.347220000000E-01

 T = ATOM BELONGING TO THE ASYMMETRIC UNIT

 ****   1 SYMMOPS - TRANSLATORS IN FRACTIONAL UNITS
  V INV                   ROTATION MATRICES                       TRANSLATOR
  1  1  1.00  0.00  0.00  0.00  1.00  0.00  0.00  0.00  1.00    0.00  0.00  0.00

 DIRECT LATTICE VECTORS CARTESIAN COMPONENTS (ANGSTROM)
          X                    Y                    Z
   0.108757000000E+02   0.665944559674E-15   0.000000000000E+00
   0.000000000000E+00   0.107787000000E+02   0.000000000000E+00
   0.129730509374E-14   0.129730509374E-14   0.211866000000E+02


 CARTESIAN COORDINATES - PRIMITIVE CELL
 *******************************************************************************
 *      ATOM          X(ANGSTROM)         Y(ANGSTROM)         Z(ANGSTROM)
 *******************************************************************************
   1     8 O    -4.915555383200E+00 -1.219911708600E+00 -7.782537337800E+00
   2     8 O     3.865071520200E+00  3.558814157700E+00 -8.048471541000E+00
   3     8 O    -2.183807932900E+00  2.713246700100E+00 -9.326807425200E+00
   4     8 O     3.758989942400E+00 -4.642774123200E+00 -8.817714613800E+00
   5     8 O    -3.527228775400E+00  2.013762963600E+00 -6.835114959000E+00
   6     8 O    -1.622784948400E+00 -3.487901090400E+00 -9.007991468400E+00
   7     8 O    -3.908954969700E+00 -4.645048428900E+00 -7.594167277200E+00
   8     8 O     2.599759955100E+00 -8.066779080000E-02 -8.489068074600E+00
   9     8 O     1.167810914600E+00  3.885990817500E+00 -7.585099412400E+00
  10     8 O    -3.816370135600E+00  7.224315888000E-01 -9.530177598600E+00
  11     8 O    -9.209542760000E-01 -1.263479214000E-01 -9.896960017800E+00
  12     8 O    -4.306711945800E+00  3.641680803300E+00 -9.442380328200E+00
  13     8 O     3.338731143000E+00 -2.455517204400E+00 -7.426199912400E+00
  14     8 O     1.208181513000E+00 -3.976693578000E+00 -8.546674440000E+00
  15     8 O    -1.391219544000E-01 -2.025878222400E+00 -7.492768209600E+00
  16     8 O     2.411153565700E+00 -2.556168705000E+00 -1.007986393560E+01
  17     8 O     5.428714412000E-01  3.461536390200E+00 -1.741347840600E+00
  18     8 O     2.937907219500E+00  4.047003038100E+00 -5.559151974000E+00
  19     8 O     1.757121594800E+00  5.239224266400E+00 -3.280660263600E+00
  20     8 O    -5.436729802900E+00  2.255971131300E+00 -4.165349119800E+00
  21     8 O    -3.735226537900E+00  1.041330207000E+00 -2.594023744200E+00
  22     8 O    -2.221220340900E+00  4.701183898500E+00 -5.857099129800E+00
  23     8 O     4.177541256900E+00 -1.969225375200E+00 -4.641348462000E-01
  24     8 O    -1.824898957200E+00 -1.783573046400E+00 -8.545826976000E-01
  25     8 O    -5.026280884900E+00 -4.459320649200E+00 -1.616643513000E+00
  26     8 O     2.115204017300E+00 -4.225293514800E+00 -5.621927869800E+00
  27     8 O    -3.396742126800E+00 -3.709144686600E+00 -5.310209424000E+00
  28     8 O    -5.154451009400E+00 -1.555657434900E+00 -2.623303625400E+00
  29     8 O    -3.331118153000E-01  3.654087087000E-01 -5.777585820000E+00
  30     8 O     5.101464599000E-01 -2.464118607000E+00 -4.955905912200E+00
  31     8 O    -4.371824761700E+00 -1.362815713200E+00 -5.183005077600E+00
  32     8 O    -1.803734845000E+00 -1.528354987800E+00 -5.735445672600E+00
  33     8 O    -1.101316884800E+00  1.248852518100E+00 -1.976603847000E+00
  34     8 O     3.777674395000E-01  4.461670405800E+00 -5.140123399200E+00
  35     8 O    -1.898473067700E+00  2.162983286400E+00 -4.146259993200E+00
  36     8 O     3.653930680400E+00 -3.767263437000E+00 -2.170630729800E+00
  37     8 O    -6.355432809000E-01 -4.868814240900E+00 -7.143761347800E+00
  38     8 O    -2.642969111200E+00 -5.126371277400E+00 -1.249882280400E+00
  39     8 O     6.638418523000E-01  1.844785283700E+00 -3.839732264400E+00
  40     8 O    -2.592505863200E+00  3.021194159100E+00 -1.229331278400E+00
  41     8 O     4.451369631500E+00  1.240509804300E+00 -1.787089710000E+00
  42     8 O     4.242610570000E+00 -1.096409364000E-01 -6.146868258000E+00
  43     8 O    -4.807962083100E+00  4.752188706900E+00 -5.461460561400E+00
  44     8 O     1.244887000500E+00  1.080758691600E+00 -1.052995206600E+00
  45     8 O     3.531655185300E+00 -2.255227401000E+00 -4.533063749400E+00
  46     8 O     4.074330863900E+00  4.658769714000E+00 -6.882043278000E-01
  47     8 O    -3.620803298200E+00  3.912366296400E+00 -3.238329436800E+00
  48     8 O    -2.328748386800E+00 -2.310446681100E+00 -3.348626876400E+00
  49     8 O    -1.033311132700E+00  5.045897503200E+00 -3.111400516200E+00
  50     8 O    -3.846484948900E+00 -3.236725044300E+00  1.769504832000E-01
  51     8 O     4.627664728500E+00  4.609112243100E+00 -3.275829718800E+00
  52     8 O     3.970174285000E-01 -4.713417723000E+00 -1.157741757000E+00
  53     8 O     3.189951567000E-01 -1.541839141500E+00 -2.466840584400E+00
  54     8 O     1.744038127700E+00 -9.243705333000E-01 -6.101423001000E+00
  55     8 O    -8.489353906000E-01  2.689598232300E+00 -6.461065536000E+00
  56     8 O     2.518192205100E+00  1.694799673200E+00 -6.617486203800E+00
  57    14 SI    5.533121132000E-01  4.267502904000E-01  3.131591346000E-01
  58    14 SI    3.242840096100E+00  3.441455672100E+00  1.248314472000E-01
  59    14 SI    1.747311713400E+00  4.548859310100E+00  1.578401700000E+00
  60    14 SI    4.457851548700E+00  1.948196131500E+00  1.529545400400E+00
  61    14 SI    4.085674219000E-01  3.174521166600E+00  2.979704610600E+00
  62    14 SI    3.140293120800E+00  5.240065005000E-01  2.940318721200E+00
  63    14 SI    1.785017765300E+00  1.824122515800E+00  4.395329662800E+00
  64    14 SI    4.456231069400E+00  4.482031370100E+00  4.517661091200E+00
  65    14 SI    8.214307453000E-01 -4.374362935800E+00  4.135412454000E-01
  66    14 SI    2.926183214900E+00 -2.642064165300E+00  4.615924542000E-01
  67    14 SI    1.827454746700E+00 -9.904655217000E-01  1.677110069400E+00
  68    14 SI    4.080366877400E+00 -3.326834976300E+00  2.289106197000E+00
  69    14 SI    3.596050205000E-01 -2.217588180600E+00  3.131548972800E+00
  70    14 SI    2.965705508700E+00 -5.063617686000E+00  3.230744634000E+00
  71    14 SI    1.628211922700E+00 -3.650411550300E+00  4.540436686200E+00
  72    14 SI    4.447563136500E+00 -8.158074669000E-01  4.437024891600E+00
  73    14 SI   -4.572133404300E+00  1.030206588600E+00  4.796858106000E-01
  74    14 SI   -2.781384145100E+00  2.646785235900E+00  3.964648458000E-01
  75    14 SI   -3.682435890100E+00  4.506876273600E+00  1.574821164600E+00
  76    14 SI   -9.363651429000E-01  1.747033253400E+00  1.610668891800E+00
  77    14 SI   -5.104433665100E+00  3.213798749400E+00  3.020192203200E+00
  78    14 SI   -2.252248713000E+00  4.506574470000E-01  3.113688669000E+00
  79    14 SI   -3.680151993100E+00  1.824047064900E+00  4.396939844400E+00
  80    14 SI   -9.411613266000E-01  4.495030482300E+00  4.443804603600E+00
  81    14 SI   -3.958950562600E+00 -4.764390195300E+00 -3.484136370000E-01
  82    14 SI   -2.561466615400E+00 -2.268668439900E+00  5.285844834000E-01
  83    14 SI   -3.740142354300E+00 -7.261071255000E-01  1.764547167600E+00
  84    14 SI   -9.944196295000E-01 -3.522759406200E+00  1.737364759800E+00
  85    14 SI   -5.000103075000E+00 -2.179593263100E+00  3.164854308000E+00
  86    14 SI   -2.323604180700E+00 -4.960648764900E+00  3.064069651800E+00
  87    14 SI   -3.687264700900E+00 -3.630654193200E+00  4.511644096800E+00
  88    14 SI   -9.635543929000E-01 -8.876690598000E-01  4.553127459600E+00
  89    14 SI    4.450553954000E-01  4.920153189000E-01  5.841505792200E+00
  90    14 SI    3.125360784700E+00  3.147121711200E+00  5.875891644000E+00
  91    14 SI    3.105012350000E-01 -4.980891163500E+00  6.003477349200E+00
  92    14 SI    3.090090889600E+00 -2.261306587800E+00  5.732521921800E+00
  93    14 SI   -5.017449816500E+00  4.562839284000E-01  5.855192335800E+00
  94    14 SI   -2.306855602700E+00  3.143489289300E+00  5.779534987200E+00
  95    14 SI   -5.054557704900E+00 -4.988673384900E+00  5.929451368800E+00
  96    14 SI   -2.360451052300E+00 -2.252618955600E+00  5.899006224600E+00
  97    14 SI    1.751281343900E+00  4.415688471600E+00  7.339864517400E+00
  98    14 SI    4.556907424300E+00  1.852179471900E+00  7.231728111000E+00
  99    14 SI    3.334054592000E-01  3.155281187100E+00  8.772587155800E+00
 100    14 SI    3.227744624500E+00  4.094181408000E-01  8.436228694200E+00
 101    14 SI    1.364867722900E+00  1.098942358500E+00  9.685178764200E+00
 102    14 SI    4.895772484900E+00  4.898250870600E+00  9.792340587000E+00
 103    14 SI    1.787856323000E+00 -9.543245406000E-01  7.151473270200E+00
 104    14 SI    4.439971897900E+00 -3.534163270800E+00  7.195647331200E+00
 105    14 SI    3.114691723000E-01 -2.165160583800E+00  8.578581459600E+00
 106    14 SI    3.108079297400E+00 -4.873082606100E+00  8.601547734000E+00
 107    14 SI    1.475875992800E+00 -3.702213982500E+00  9.878633608800E+00
 108    14 SI    4.625141566100E+00 -6.278592750000E-01  1.003632547260E+01
 109    14 SI   -3.641923907600E+00  4.371226334100E+00  7.289313289800E+00
 110    14 SI   -9.586712036000E-01  1.848547050000E+00  7.201007541000E+00
 111    14 SI   -4.919459759500E+00  3.011816690100E+00  8.826210440400E+00
 112    14 SI   -2.434688580500E+00  6.744340377000E-01  8.601971466000E+00
 113    14 SI   -3.656138447500E+00  2.204157920400E+00 -1.034348879940E+01
 114    14 SI   -6.220574129000E-01  4.890770452800E+00  1.016073318780E+01
 115    14 SI   -3.707863276700E+00 -9.137211777000E-01  7.332745819800E+00
 116    14 SI   -1.090734828700E+00 -3.597186329700E+00  7.334313628200E+00
 117    14 SI   -5.131209638500E+00 -2.286938336400E+00  8.748646297800E+00
 118    14 SI   -2.343680722900E+00 -5.042523770100E+00  8.723730856200E+00
 119    14 SI   -4.208645758900E+00 -4.142006499900E+00  9.992977689000E+00
 120    14 SI   -5.752375244000E-01 -2.427471027000E-01  9.650009008200E+00
 121    14 SI   -2.163916277600E+00  1.758016748700E+00 -7.524505736400E+00
 122    14 SI    2.530590503100E+00  3.292720390800E+00 -6.994078018800E+00
 123    14 SI    2.567894154100E+00 -6.127906524000E-01 -1.003509664980E+01
 124    14 SI   -3.198032212100E+00 -3.980789484000E+00 -8.964156393000E+00
 125    14 SI    2.734716516400E+00 -3.376276873200E+00 -8.564471184000E+00
 126    14 SI   -2.772324687000E-01 -3.569894661300E+00 -8.018831487600E+00
 127    14 SI   -2.744036991300E+00  4.359779354700E+00 -9.313142068200E+00
 128    14 SI   -5.301392592100E+00  1.402308870000E-01 -8.820723111000E+00
 129    14 SI   -2.040216065800E+00 -3.846163521000E-01 -8.707501920600E+00
 130    14 SI    4.284797410300E+00  4.647247283700E+00 -9.151763736000E+00
 131    14 SI   -3.539866338800E+00 -5.149491588900E+00 -6.042100521000E+00
 132    14 SI    4.200304097000E-01  4.970500496700E+00 -2.360144866800E+00
 133    14 SI    5.295487087000E+00 -1.306216759500E+00 -6.264496261200E+00
 134    14 SI   -5.320479445600E+00  1.249499240100E+00 -2.858898617400E+00
 135    14 SI    4.723327385700E+00 -2.492175563100E+00 -1.910755894200E+00
 136    14 SI   -2.963813136900E+00 -2.209525713000E+00 -4.882790955600E+00
 137    14 SI    1.868162491800E+00  5.117468071200E+00 -4.935354910200E+00
 138    14 SI   -2.437385754100E+00  2.037982702500E+00 -2.573324436000E+00
 139    14 SI    3.910901720000E-01  1.900220137800E+00 -2.200694515200E+00
 140    14 SI   -6.063855292000E-01  4.451096501100E+00 -6.410175322800E+00
 141    14 SI   -5.435674860000E-01  1.756389165000E+00 -4.986732415200E+00
 142    14 SI   -5.060909113700E+00  3.853169676000E+00 -4.123632704400E+00
 143    14 SI    4.412739145100E+00 -5.208019929900E+00 -1.996603997400E+00
 144    14 SI    2.772770590700E+00  1.173477069000E-01 -6.858971070600E+00
 145    14 SI    2.168755964100E+00 -2.576906923800E+00 -5.269404032400E+00
 146    14 SI   -1.307476654000E-01 -1.303791552000E+00 -5.953116801000E+00
 147    14 SI   -1.165059362500E+00 -1.874663840100E+00 -2.311669926000E+00
 148    14 SI   -2.628025899400E+00  5.257332482400E+00 -2.854301125200E+00

 *******************************************************************************
 LOCAL ATOMIC FUNCTIONS BASIS SET
 *******************************************************************************
   ATOM  X(AU)  Y(AU)  Z(AU)    NO. TYPE  EXPONENT  S COEF   P COEF   D/F/G COEF
 *******************************************************************************
   1 O  -9.289 -2.305-14.707
                                  1 S  
                                         8.020E+03 1.080E-03 0.000E+00 0.000E+00
                                         1.338E+03 8.040E-03 0.000E+00 0.000E+00
                                         2.554E+02 5.324E-02 0.000E+00 0.000E+00
                                         6.922E+01 1.681E-01 0.000E+00 0.000E+00
                                         2.390E+01 3.581E-01 0.000E+00 0.000E+00
                                         9.264E+00 3.855E-01 0.000E+00 0.000E+00
                                         3.851E+00 1.468E-01 0.000E+00 0.000E+00
                                         1.212E+00 7.280E-02 0.000E+00 0.000E+00
                             2-   5 SP 
                                         4.943E+01-8.830E-03 9.580E-03 0.000E+00
                                         1.047E+01-9.150E-02 6.960E-02 0.000E+00
                                         3.235E+00-4.020E-02 2.065E-01 0.000E+00
                                         1.217E+00 3.790E-01 3.470E-01 0.000E+00
                             6-   9 SP 
                                         4.763E-01 1.000E+00 1.000E+00 0.000E+00
                            10-  13 SP 
                                         1.900E-01 1.000E+00 1.000E+00 0.000E+00
   2 O   7.304  6.725-15.209
   3 O  -4.127  5.127-17.625
   4 O   7.103 -8.774-16.663
   5 O  -6.665  3.805-12.916
   6 O  -3.067 -6.591-17.023
   7 O  -7.387 -8.778-14.351
   8 O   4.913 -0.152-16.042
   9 O   2.207  7.343-14.334
  10 O  -7.212  1.365-18.009
  11 O  -1.740 -0.239-18.703
  12 O  -8.139  6.882-17.844
  13 O   6.309 -4.640-14.033
  14 O   2.283 -7.515-16.151
  15 O  -0.263 -3.828-14.159
  16 O   4.556 -4.830-19.048
  17 O   1.026  6.541 -3.291
  18 O   5.552  7.648-10.505
  19 O   3.320  9.901 -6.200
  20 O -10.274  4.263 -7.871
  21 O  -7.059  1.968 -4.902
  22 O  -4.197  8.884-11.068
  23 O   7.894 -3.721 -0.877
  24 O  -3.449 -3.370 -1.615
  25 O  -9.498 -8.427 -3.055
  26 O   3.997 -7.985-10.624
  27 O  -6.419 -7.009-10.035
  28 O  -9.741 -2.940 -4.957
  29 O  -0.629  0.691-10.918
  30 O   0.964 -4.657 -9.365
  31 O  -8.262 -2.575 -9.794
  32 O  -3.409 -2.888-10.838
  33 O  -2.081  2.360 -3.735
  34 O   0.714  8.431 -9.713
  35 O  -3.588  4.087 -7.835
  36 O   6.905 -7.119 -4.102
  37 O  -1.201 -9.201-13.500
  38 O  -4.994 -9.687 -2.362
  39 O   1.254  3.486 -7.256
  40 O  -4.899  5.709 -2.323
  41 O   8.412  2.344 -3.377
  42 O   8.017 -0.207-11.616
  43 O  -9.086  8.980-10.321
  44 O   2.352  2.042 -1.990
  45 O   6.674 -4.262 -8.566
  46 O   7.699  8.804 -1.301
  47 O  -6.842  7.393 -6.120
  48 O  -4.401 -4.366 -6.328
  49 O  -1.953  9.535 -5.880
  50 O  -7.269 -6.117  0.334
  51 O   8.745  8.710 -6.190
  52 O   0.750 -8.907 -2.188
  53 O   0.603 -2.914 -4.662
  54 O   3.296 -1.747-11.530
  55 O  -1.604  5.083-12.210
  56 O   4.759  3.203-12.505
  57 SI  1.046  0.806  0.592
                                729 S  
                                         8.765E+04 2.370E-04 0.000E+00 0.000E+00
                                         1.285E+04 1.920E-03 0.000E+00 0.000E+00
                                         2.786E+03 1.090E-02 0.000E+00 0.000E+00
                                         7.280E+02 4.960E-02 0.000E+00 0.000E+00
                                         2.195E+02 1.668E-01 0.000E+00 0.000E+00
                                         7.590E+01 3.630E-01 0.000E+00 0.000E+00
                                         2.946E+01 4.051E-01 0.000E+00 0.000E+00
                                         1.199E+01 1.504E-01 0.000E+00 0.000E+00
                           730- 733 SP 
                                         1.660E+02-8.840E-03 9.090E-03 0.000E+00
                                         3.937E+01-8.590E-02 6.010E-02 0.000E+00
                                         1.271E+01-7.120E-02 1.952E-01 0.000E+00
                                         4.718E+00 4.147E-01 3.384E-01 0.000E+00
                                         1.848E+00 6.168E-01 3.006E-01 0.000E+00
                                         7.365E-01 1.154E-01 6.480E-02 0.000E+00
                           734- 737 SP 
                                         4.175E+00-1.990E-02-8.700E-03 0.000E+00
                                         1.447E+00-1.864E-01-4.380E-03 0.000E+00
                                         5.023E-01 9.670E-02 2.207E-01 0.000E+00
                           738- 741 SP 
                                         3.220E-01 1.000E+00 1.000E+00 0.000E+00
                           742- 745 SP 
                                         1.300E-01 1.000E+00 1.000E+00 0.000E+00
                           746- 750 D  
                                         6.000E-01 0.000E+00 0.000E+00 1.000E+00
  58 SI  6.128  6.503  0.236
  59 SI  3.302  8.596  2.983
  60 SI  8.424  3.682  2.890
  61 SI  0.772  5.999  5.631
  62 SI  5.934  0.990  5.556
  63 SI  3.373  3.447  8.306
  64 SI  8.421  8.470  8.537
  65 SI  1.552 -8.266  0.781
  66 SI  5.530 -4.993  0.872
  67 SI  3.453 -1.872  3.169
  68 SI  7.711 -6.287  4.326
  69 SI  0.680 -4.191  5.918
  70 SI  5.604 -9.569  6.105
  71 SI  3.077 -6.898  8.580
  72 SI  8.405 -1.542  8.385
  73 SI -8.640  1.947  0.906
  74 SI -5.256  5.002  0.749
  75 SI -6.959  8.517  2.976
  76 SI -1.769  3.301  3.044
  77 SI -9.646  6.073  5.707
  78 SI -4.256  0.852  5.884
  79 SI -6.954  3.447  8.309
  80 SI -1.779  8.494  8.398
  81 SI -7.481 -9.003 -0.658
  82 SI -4.840 -4.287  0.999
  83 SI -7.068 -1.372  3.335
  84 SI -1.879 -6.657  3.283
  85 SI -9.449 -4.119  5.981
  86 SI -4.391 -9.374  5.790
  87 SI -6.968 -6.861  8.526
  88 SI -1.821 -1.677  8.604
  89 SI  0.841  0.930 11.039
  90 SI  5.906  5.947 11.104
  91 SI  0.587 -9.413 11.345
  92 SI  5.839 -4.273 10.833
  93 SI -9.482  0.862 11.065
  94 SI -4.359  5.940 10.922
  95 SI -9.552 -9.427 11.205
  96 SI -4.461 -4.257 11.148
  97 SI  3.309  8.344 13.870
  98 SI  8.611  3.500 13.666
  99 SI  0.630  5.963 16.578
 100 SI  6.100  0.774 15.942
 101 SI  2.579  2.077 18.302
 102 SI  9.252  9.256 18.505
 103 SI  3.379 -1.803 13.514
 104 SI  8.390 -6.679 13.598
 105 SI  0.589 -4.092 16.211
 106 SI  5.873 -9.209 16.255
 107 SI  2.789 -6.996 18.668
 108 SI  8.740 -1.186 18.966
 109 SI -6.882  8.260 13.775
 110 SI -1.812  3.493 13.608
 111 SI -9.296  5.692 16.679
 112 SI -4.601  1.274 16.255
 113 SI -6.909  4.165-19.546
 114 SI -1.176  9.242 19.201
 115 SI -7.007 -1.727 13.857
 116 SI -2.061 -6.798 13.860
 117 SI -9.697 -4.322 16.533
 118 SI -4.429 -9.529 16.485
 119 SI -7.953 -7.827 18.884
 120 SI -1.087 -0.459 18.236
 121 SI -4.089  3.322-14.219
 122 SI  4.782  6.222-13.217
 123 SI  4.853 -1.158-18.964
 124 SI -6.043 -7.523-16.940
 125 SI  5.168 -6.380-16.185
 126 SI -0.524 -6.746-15.153
 127 SI -5.185  8.239-17.599
 128 SI-10.018  0.265-16.669
 129 SI -3.855 -0.727-16.455
 130 SI  8.097  8.782-17.294
 131 SI -6.689 -9.731-11.418
 132 SI  0.794  9.393 -4.460
 133 SI 10.007 -2.468-11.838
 134 SI-10.054  2.361 -5.403
 135 SI  8.926 -4.710 -3.611
 136 SI -5.601 -4.175 -9.227
 137 SI  3.530  9.671 -9.326
 138 SI -4.606  3.851 -4.863
 139 SI  0.739  3.591 -4.159
 140 SI -1.146  8.411-12.113
 141 SI -1.027  3.319 -9.424
 142 SI -9.564  7.281 -7.793
 143 SI  8.339 -9.842 -3.773
 144 SI  5.240  0.222-12.962
 145 SI  4.098 -4.870 -9.958
 146 SI -0.247 -2.464-11.250
 147 SI -2.202 -3.543 -4.368
 148 SI -4.966  9.935 -5.394
 INFORMATION **** TOLINTEG **** COULOMB AND EXCHANGE SERIES TOLERANCES MODIFIED
 INFORMATION **** READM2 **** FULL DIRECT SCF (MONO AND BIEL INT) SELECTED
 INFORMATION **** SMEAR **** FERMI SMEARING ACTIVE
 FERMI SMEARING - TEMPERATURE SMEARING OF FERMI SURFACE  0.1000E-12
 INFORMATION **** MAXCYCLE **** MAX NUMBER OF SCF CYCLES SET TO         250

 MODIFIED BROYDEN MIXING OF THE FOCK MATRIX
 WO PARAMETER(D.D. Johnson, PRB38, 12807,(1988)             1.0000E-04
 % OF FOCK/KS MATRICES MIXING WHEN BROYDEN METHOD IS ON             90
 NUMBER OF SCF ITERATIONS AFTER WHICH BROYDEN METHOD IS ACTIVE      40
 INFORMATION **** TOLDEE **** SCF TOL ON TOTAL ENERGY SET TO           7
 *******************************************************************************
 N. OF ATOMS PER CELL      148  COULOMB OVERLAP TOL         (T1) 10** -8
 NUMBER OF SHELLS          776  COULOMB PENETRATION TOL     (T2) 10** -8
 NUMBER OF AO             2752  EXCHANGE OVERLAP TOL        (T3) 10** -8
 N. OF ELECTRONS PER CELL 1736  EXCHANGE PSEUDO OVP (F(G))  (T4) 10** -8
 CORE ELECTRONS PER CELL  1032  EXCHANGE PSEUDO OVP (P(G))  (T5) 10**-16
 N. OF SYMMETRY OPERATORS    1  POLE ORDER IN MONO ZONE                4
 *******************************************************************************
 TYPE OF CALCULATION :  UNRESTRICTED OPEN SHELL
 KOHN-SHAM HAMILTONIAN

 (EXCHANGE)[CORRELATION] FUNCTIONAL:(BECKE)[LEE-YANG-PARR]

 NON-LOCAL WEIGHTING FACTOR (EXCHANGE) =           0.9000
 NON-LOCAL WEIGHTING FACTOR [CORRELATION] =        0.8100

 HYBRID EXCHANGE - PERCENTAGE OF FOCK EXCHANGE     5.0000

 SPIN POLARIZED DFT SELECTED

 CAPPA:IS1  2;IS2  2;IS3  2; K PTS MONK NET    8; SYMMOPS: K SPACE  2;G SPACE  1

 *******************************************************************************
 MAX NUMBER OF SCF CYCLES     250  CONVERGENCE ON DELTAP        10**-17
 WEIGHT OF F(I) IN F(I+1)      95% CONVERGENCE ON ENERGY        10**- 7
 SHRINK. FACT.(MONKH.)    2  2  2  NUMBER OF K POINTS IN THE IBZ      8
 SHRINKING FACTOR(GILAT NET)    2  NUMBER OF K POINTS(GILAT NET)      8
 *******************************************************************************
 *** K POINTS COORDINATES (OBLIQUE COORDINATES IN UNITS OF IS =  2)
   1-R(  0  0  0)   2-R(  1  0  0)   3-R(  0  1  0)   4-R(  1  1  0)
   5-R(  0  0  1)   6-R(  1  0  1)   7-R(  0  1  1)   8-R(  1  1  1)

 DIRECT LATTICE VECTORS COMPON. (A.U.)     RECIP. LATTICE VECTORS COMPON. (A.U.) 
        X            Y            Z              X            Y            Z
   20.5520945    0.0000000    0.0000000      0.3057199    0.0000000    0.0000000
    0.0000000   20.3687911    0.0000000      0.0000000    0.3084712    0.0000000
    0.0000000    0.0000000   40.0368717      0.0000000    0.0000000    0.1569350

 DISK SPACE FOR EIGENVECTORS (FTN 10)   60588032 REALS

 SYMMETRY ADAPTION OF THE BLOCH FUNCTIONS DISABLED
 TTTTTTTTTTTTTTTTTTTTTTTTTTTTTT gordsh1     TELAPSE        3.90 TCPU        0.61

 DIMENSIONS  P(G)= 6323414 F(G)= 1128503 P(G),F(G) (IRR) 3170163
 MAX G-VECTOR INDEX FOR 1- AND 2-ELECTRON INTEGRALS  45

 TTTTTTTTTTTTTTTTTTTTTTTTTTTTTT INPUT       TELAPSE        4.42 TCPU        1.13

 NEIGHBORS OF THE NON-EQUIVALENT ATOMS

 N = NUMBER OF NEIGHBORS AT DISTANCE R
    ATOM  N     R/ANG      R/AU   NEIGHBORS (ATOM LABELS AND CELL INDICES)
   1 O    1     1.6594     3.1358 133 SI  -1 0 0
   1 O    1     1.7540     3.3147 128 SI   0 0 0
   1 O    1     2.6188     4.9488  42 O   -1 0 0
   1 O    1     2.6596     5.0260  31 O    0 0 0
   1 O    1     2.8346     5.3567  10 O    0 0 0
   1 O    1     2.9198     5.5177  13 O   -1 0 0

   2 O    1     1.6056     3.0342 130 SI   0 0 0
   2 O    1     1.7215     3.2531 122 SI   0 0 0
   2 O    1     2.6916     5.0863   4 O    0 1 0
   2 O    1     2.7009     5.1039  18 O    0 0 0
   2 O    1     2.7086     5.1185  56 O    0 0 0
   2 O    1     2.7563     5.2086   9 O    0 0 0

   3 O    1     1.7393     3.2868 127 SI   0 0 0
   3 O    1     1.8603     3.5154 113 SI   0 0 0
   3 O    1     2.0399     3.8548 121 SI   0 0 0
   3 O    1     2.3199     4.3840  12 O    0 0 0
   3 O    1     2.5826     4.8805  10 O    0 0 0
   3 O    1     2.9159     5.5103   5 O    0 0 0

   4 O    1     1.6138     3.0496 130 SI   0-1 0
   4 O    1     1.6484     3.1151 125 SI   0 0 0
   4 O    1     2.6262     4.9628  13 O    0 0 0
   4 O    1     2.6502     5.0082  14 O    0 0 0
   4 O    1     2.6916     5.0863   2 O    0-1 0
   4 O    1     2.7863     5.2654  16 O    0 0 0

   5 O    1     1.5490     2.9271 121 SI   0 0 0
   5 O    1     2.7875     5.2675  55 O    0 0 0
   5 O    1     2.9159     5.5103   3 O    0 0 0
   5 O    1     3.0024     5.6737  10 O    0 0 0
   5 O    1     3.1439     5.9412  22 O    0 0 0
   5 O    1     3.1472     5.9474  35 O    0 0 0

   6 O    1     1.6511     3.1202 124 SI   0 0 0
   6 O    1     1.6720     3.1597 126 SI   0 0 0
   6 O    1     2.5213     4.7646  37 O    0 0 0
   6 O    1     2.5758     4.8675  15 O    0 0 0
   6 O    1     2.9097     5.4985  14 O    0 0 0
   6 O    1     2.9265     5.5303   7 O    0 0 0

   7 O    1     1.6732     3.1619 131 SI   0 0 0
   7 O    1     1.6803     3.1754 124 SI   0 0 0
   7 O    1     2.5209     4.7637  27 O    0 0 0
   7 O    1     2.6954     5.0935  43 O    0-1 0
   7 O    1     2.7310     5.1609 127 SI   0-1 0
   7 O    1     2.8139     5.3174  22 O    0-1 0

   8 O    1     1.6354     3.0904 123 SI   0 0 0
   8 O    1     1.6512     3.1203 144 SI   0 0 0
   8 O    1     2.5810     4.8775  56 O    0 0 0
   8 O    1     2.6730     5.0512  54 O    0 0 0
   8 O    1     2.7048     5.1112  13 O    0 0 0
   8 O    1     2.8611     5.4066  42 O    0 0 0

   9 O    1     1.5995     3.0226 122 SI   0 0 0
   9 O    1     2.2017     4.1606 140 SI   0 0 0
   9 O    1     2.6004     4.9140  55 O    0 0 0
   9 O    1     2.6332     4.9759  34 O    0 0 0
   9 O    1     2.6951     5.0930  18 O    0 0 0
   9 O    1     2.7465     5.1900  37 O    0 1 0

  10 O    1     1.6978     3.2085 113 SI   0 0 0
  10 O    1     1.7457     3.2990 128 SI   0 0 0
  10 O    1     2.2488     4.2496 129 SI   0 0 0
  10 O    1     2.5826     4.8805   3 O    0 0 0
  10 O    1     2.7975     5.2864 121 SI   0 0 0
  10 O    1     2.8346     5.3567   1 O    0 0 0

  11 O    1     1.6536     3.1248 129 SI   0 0 0
  11 O    1     1.6797     3.1742 120 SI   0 0-1
  11 O    1     3.0395     5.7438  10 O    0 0 0
  11 O    1     3.0497     5.7631 101 SI   0 0-1
  11 O    1     3.1596     5.9708   3 O    0 0 0
  11 O    1     3.1622     5.9757  15 O    0 0 0

  12 O    1     1.7246     3.2591 127 SI   0 0 0
  12 O    1     1.8171     3.4337 113 SI   0 0 0
  12 O    1     2.3199     4.3840   3 O    0 0 0
  12 O    1     2.5126     4.7481 130 SI  -1 0 0
  12 O    1     2.8615     5.4075 102 SI  -1 0-1
  12 O    1     2.9614     5.5963  10 O    0 0 0

  13 O    1     1.5838     2.9929 125 SI   0 0 0
  13 O    1     2.4567     4.6425 145 SI   0 0 0
  13 O    1     2.5494     4.8176 133 SI   0 0 0
  13 O    1     2.5773     4.8704  54 O    0 0 0
  13 O    1     2.6262     4.9628   4 O    0 0 0
  13 O    1     2.6948     5.0923 144 SI   0 0 0

  14 O    1     1.6281     3.0766 126 SI   0 0 0
  14 O    1     1.6405     3.1000 125 SI   0 0 0
  14 O    1     2.4116     4.5572  16 O    0 0 0
  14 O    1     2.4826     4.6915  37 O    0 0 0
  14 O    1     2.5945     4.9030  15 O    0 0 0
  14 O    1     2.6502     5.0082   4 O    0 0 0

  15 O    1     1.6370     3.0935 126 SI   0 0 0
  15 O    1     1.7006     3.2136 146 SI   0 0 0
  15 O    1     2.4712     4.6698  32 O    0 0 0
  15 O    1     2.5758     4.8675   6 O    0 0 0
  15 O    1     2.5876     4.8898  54 O    0 0 0
  15 O    1     2.5945     4.9030  14 O    0 0 0

  16 O    1     1.7532     3.3131 125 SI   0 0 0
  16 O    1     1.9226     3.6332 107 SI   0 0-1
  16 O    1     1.9502     3.6853 123 SI   0 0 0
  16 O    1     2.4116     4.5572  14 O    0 0 0
  16 O    1     2.7863     5.2654   4 O    0 0 0
  16 O    1     2.8129     5.3156  13 O    0 0 0

  17 O    1     1.6345     3.0888 139 SI   0 0 0
  17 O    1     1.6355     3.0907 132 SI   0 0 0
  17 O    1     2.5758     4.8676  44 O    0 0 0
  17 O    1     2.6214     4.9537  49 O    0 0 0
  17 O    1     2.6465     5.0012  19 O    0 0 0
  17 O    1     2.6517     5.0111  39 O    0 0 0

  18 O    1     1.6369     3.0933 137 SI   0 0 0
  18 O    1     1.6715     3.1586 122 SI   0 0 0
  18 O    1     2.6133     4.9383  56 O    0 0 0
  18 O    1     2.6271     4.9646  34 O    0 0 0
  18 O    1     2.6387     4.9865  26 O    0 1 0
  18 O    1     2.6951     5.0930   9 O    0 0 0

  19 O    1     1.6454     3.1094 132 SI   0 0 0
  19 O    1     1.6629     3.1424 137 SI   0 0 0
  19 O    1     2.4423     4.6153  34 O    0 0 0
  19 O    1     2.6465     5.0012  17 O    0 0 0
  19 O    1     2.6531     5.0137  52 O    0 1 0
  19 O    1     2.7087     5.1186  26 O    0 1 0

  20 O    1     1.6413     3.1017 142 SI   0 0 0
  20 O    1     1.6533     3.1242 134 SI   0 0 0
  20 O    1     2.6152     4.9421  21 O    0 0 0
  20 O    1     2.6269     4.9641  47 O    0 0 0
  20 O    1     2.6432     4.9950  51 O   -1 0 0
  20 O    1     2.7681     5.2310  41 O   -1 0 0

  21 O    1     1.6207     3.0626 134 SI   0 0 0
  21 O    1     1.6365     3.0925 138 SI   0 0 0
  21 O    1     2.6152     4.9421  20 O    0 0 0
  21 O    1     2.6535     5.0144  35 O    0 0 0
  21 O    1     2.6623     5.0311  40 O    0 0 0
  21 O    1     2.7133     5.1273  33 O    0 0 0

  22 O    1     1.6230     3.0671 131 SI   0 1 0
  22 O    1     1.7251     3.2601 140 SI   0 0 0
  22 O    1     2.3729     4.4842  37 O    0 1 0
  22 O    1     2.5089     4.7411  55 O    0 0 0
  22 O    1     2.6173     4.9460  43 O    0 0 0
  22 O    1     2.7000     5.1023  27 O    0 1 0

  23 O    1     1.6322     3.0844 135 SI   0 0 0
  23 O    1     1.6958     3.2045  66 SI   0 0 0
  23 O    1     2.5336     4.7879  36 O    0 0 0
  23 O    1     2.6863     5.0763  28 O    1 0 0
  23 O    1     3.0713     5.8039  68 SI   0 0 0
  23 O    1     3.1858     6.0204  50 O    1 0 0

  24 O    1     1.6021     3.0276 147 SI   0 0 0
  24 O    1     1.6404     3.1000  82 SI   0 0 0
  24 O    1     2.5984     4.9103  48 O    0 0 0
  24 O    1     2.6933     5.0897  53 O    0 0 0
  24 O    1     2.6949     5.0926  50 O    0 0 0
  24 O    1     3.2300     6.1037  84 SI   0 0 0

  25 O    1     1.6640     3.1445 143 SI  -1 0 0
  25 O    1     1.6854     3.1850  81 SI   0 0 0
  25 O    1     2.2857     4.3193 135 SI  -1 0 0
  25 O    1     2.3677     4.4743  36 O   -1 0 0
  25 O    1     2.4706     4.6687  50 O    0 0 0
  25 O    1     2.5019     4.7280  38 O    0 0 0

  26 O    1     1.6107     3.0438 137 SI   0-1 0
  26 O    1     1.6865     3.1870 145 SI   0 0 0
  26 O    1     2.4742     4.6755  30 O    0 0 0
  26 O    1     2.6387     4.9865  18 O    0-1 0
  26 O    1     2.6595     5.0258  45 O    0 0 0
  26 O    1     2.7087     5.1186  19 O    0-1 0

  27 O    1     1.6183     3.0582 136 SI   0 0 0
  27 O    1     1.6220     3.0651 131 SI   0 0 0
  27 O    1     2.5209     4.7637   7 O    0 0 0
  27 O    1     2.5441     4.8076  31 O    0 0 0
  27 O    1     2.6353     4.9800  48 O    0 0 0
  27 O    1     2.7000     5.1023  22 O    0-1 0

  28 O    1     1.5429     2.9157 135 SI  -1 0 0
  28 O    1     2.6836     5.0713  31 O    0 0 0
  28 O    1     2.6863     5.0763  23 O   -1 0 0
  28 O    1     2.8199     5.3289 134 SI   0 0 0
  28 O    1     2.9596     5.5929  21 O    0 0 0
  28 O    1     2.9885     5.6474  45 O   -1 0 0

  29 O    1     1.6139     3.0498 141 SI   0 0 0
  29 O    1     1.6906     3.1947 146 SI   0 0 0
  29 O    1     2.3981     4.5317  32 O    0 0 0
  29 O    1     2.4664     4.6608  54 O    0 0 0
  29 O    1     2.4769     4.6807  55 O    0 0 0
  29 O    1     2.6340     4.9775  39 O    0 0 0

  30 O    1     1.6588     3.1346 146 SI   0 0 0
  30 O    1     1.6917     3.1969 145 SI   0 0 0
  30 O    1     2.2816     4.3115  54 O    0 0 0
  30 O    1     2.4742     4.6755  26 O    0 0 0
  30 O    1     2.6148     4.9413  32 O    0 0 0
  30 O    1     2.6550     5.0173  15 O    0 0 0

  31 O    1     1.6227     3.0664 133 SI  -1 0 0
  31 O    1     1.6702     3.1562 136 SI   0 0 0
  31 O    1     2.5441     4.8076  27 O    0 0 0
  31 O    1     2.6320     4.9739  32 O    0 0 0
  31 O    1     2.6596     5.0260   1 O    0 0 0
  31 O    1     2.6836     5.0713  28 O    0 0 0

  32 O    1     1.5927     3.0098 136 SI   0 0 0
  32 O    1     1.7020     3.2163 146 SI   0 0 0
  32 O    1     2.3981     4.5317  29 O    0 0 0
  32 O    1     2.4712     4.6698  15 O    0 0 0
  32 O    1     2.5660     4.8490  48 O    0 0 0
  32 O    1     2.6148     4.9413  30 O    0 0 0

  33 O    1     1.6437     3.1062 139 SI   0 0 0
  33 O    1     1.6625     3.1417 138 SI   0 0 0
  33 O    1     2.4338     4.5992  40 O    0 0 0
  33 O    1     2.4857     4.6972  35 O    0 0 0
  33 O    1     2.5270     4.7754  44 O    0 0 0
  33 O    1     2.6348     4.9790  39 O    0 0 0

  34 O    1     1.6068     3.0363 140 SI   0 0 0
  34 O    1     1.6411     3.1013 137 SI   0 0 0
  34 O    1     2.4423     4.6153  19 O    0 0 0
  34 O    1     2.5278     4.7769  55 O    0 0 0
  34 O    1     2.5393     4.7986  49 O    0 0 0
  34 O    1     2.6271     4.9646  18 O    0 0 0

  35 O    1     1.6454     3.1094 141 SI   0 0 0
  35 O    1     1.6674     3.1509 138 SI   0 0 0
  35 O    1     2.4857     4.6972  33 O    0 0 0
  35 O    1     2.5956     4.9050  55 O    0 0 0
  35 O    1     2.6001     4.9135  39 O    0 0 0
  35 O    1     2.6175     4.9463  47 O    0 0 0

  36 O    1     1.6376     3.0947 143 SI   0 0 0
  36 O    1     1.6843     3.1829 135 SI   0 0 0
  36 O    1     2.3677     4.4743  25 O    1 0 0
  36 O    1     2.5336     4.7879  23 O    0 0 0
  36 O    1     2.8075     5.3055  45 O    0 0 0
  36 O    1     2.8124     5.3146  46 O    0-1 0

  37 O    1     1.6067     3.0361 126 SI   0 0 0
  37 O    1     1.6331     3.0861 140 SI   0-1 0
  37 O    1     2.3729     4.4842  22 O    0-1 0
  37 O    1     2.4826     4.6915  14 O    0 0 0
  37 O    1     2.5213     4.7646   6 O    0 0 0
  37 O    1     2.6718     5.0490  34 O    0-1 0

  38 O    1     1.6357     3.0910  81 SI   0 0 0
  38 O    1     1.6524     3.1226 148 SI   0-1 0
  38 O    1     2.5019     4.7280  25 O    0 0 0
  38 O    1     2.5346     4.7896  49 O    0-1 0
  38 O    1     2.6317     4.9732  40 O    0-1 0
  38 O    1     2.6561     5.0194  50 O    0 0 0

  39 O    1     1.6625     3.1417 139 SI   0 0 0
  39 O    1     1.6677     3.1515 141 SI   0 0 0
  39 O    1     2.6001     4.9135  35 O    0 0 0
  39 O    1     2.6340     4.9775  29 O    0 0 0
  39 O    1     2.6348     4.9790  33 O    0 0 0
  39 O    1     2.6517     5.0111  17 O    0 0 0

  40 O    1     1.6724     3.1605 138 SI   0 0 0
  40 O    1     1.6790     3.1729  74 SI   0 0 0
  40 O    1     2.4264     4.5853  47 O    0 0 0
  40 O    1     2.4338     4.5992  33 O    0 0 0
  40 O    1     2.6317     4.9732  38 O    0 1 0
  40 O    1     2.6623     5.0311  21 O    0 0 0

  41 O    1     1.5386     2.9076 134 SI   1 0 0
  41 O    1     2.7681     5.2310  20 O    1 0 0
  41 O    1     2.8146     5.3189  21 O    1 0 0
  41 O    1     2.9348     5.5460  73 SI   1 0 0
  41 O    1     3.1560     5.9639  58 SI   0 0 0
  41 O    1     3.1828     6.0147  28 O    1 0 0

  42 O    1     1.5982     3.0201 133 SI   0 0 0
  42 O    1     1.6490     3.1161 144 SI   0 0 0
  42 O    1     2.5399     4.7997  56 O    0 0 0
  42 O    1     2.6188     4.9488   1 O    1 0 0
  42 O    1     2.6284     4.9670  54 O    0 0 0
  42 O    1     2.7591     5.2140  31 O    1 0 0

  43 O    1     1.6316     3.0832 142 SI   0 0 0
  43 O    1     1.6475     3.1134 131 SI   0 1 0
  43 O    1     2.6173     4.9460  22 O    0 0 0
  43 O    1     2.6213     4.9536  51 O   -1 0 0
  43 O    1     2.6565     5.0200  47 O    0 0 0
  43 O    1     2.6954     5.0935   7 O    0 1 0

  44 O    1     1.6485     3.1153 139 SI   0 0 0
  44 O    1     1.6650     3.1465  57 SI   0 0 0
  44 O    1     2.5270     4.7754  33 O    0 0 0
  44 O    1     2.5758     4.8676  17 O    0 0 0
  44 O    1     2.9474     5.5698  39 O    0 0 0
  44 O    1     3.1200     5.8959  53 O    0 0 0

  45 O    1     1.5821     2.9898 145 SI   0 0 0
  45 O    1     2.6476     5.0032 133 SI   0 0 0
  45 O    1     2.6595     5.0258  26 O    0 0 0
  45 O    1     2.7252     5.1498  54 O    0 0 0
  45 O    1     2.7773     5.2483  42 O    0 0 0
  45 O    1     2.8075     5.3055  36 O    0 0 0

  46 O    1     1.6303     3.0809 143 SI   0 1 0
  46 O    1     1.6835     3.1814  58 SI   0 0 0
  46 O    1     2.6020     4.9171  25 O    1 1 0
  46 O    1     2.6466     5.0013  51 O    0 0 0
  46 O    1     2.8124     5.3146  36 O    0 1 0
  46 O    1     3.1674     5.9855  81 SI   1 1 0

  47 O    1     1.6915     3.1965 142 SI   0 0 0
  47 O    1     1.7152     3.2413 148 SI   0 0 0
  47 O    1     2.3143     4.3734 138 SI   0 0 0
  47 O    1     2.4264     4.5853  40 O    0 0 0
  47 O    1     2.6175     4.9463  35 O    0 0 0
  47 O    1     2.6269     4.9641  20 O    0 0 0

  48 O    1     1.6184     3.0584 147 SI   0 0 0
  48 O    1     1.6635     3.1435 136 SI   0 0 0
  48 O    1     2.5660     4.8490  32 O    0 0 0
  48 O    1     2.5984     4.9103  24 O    0 0 0
  48 O    1     2.6353     4.9800  27 O    0 0 0
  48 O    1     2.8946     5.4700  53 O    0 0 0

  49 O    1     1.6291     3.0785 148 SI   0 0 0
  49 O    1     1.6378     3.0949 132 SI   0 0 0
  49 O    1     2.5346     4.7896  38 O    0 1 0
  49 O    1     2.5393     4.7986  34 O    0 0 0
  49 O    1     2.6214     4.9537  17 O    0 0 0
  49 O    1     2.6271     4.9645  52 O    0 1 0

  50 O    1     1.6194     3.0602  81 SI   0 0 0
  50 O    1     1.6468     3.1121  82 SI   0 0 0
  50 O    1     2.4706     4.6687  25 O    0 0 0
  50 O    1     2.6561     5.0194  38 O    0 0 0
  50 O    1     2.6949     5.0926  24 O    0 0 0
  50 O    1     2.9724     5.6170  83 SI   0 0 0

  51 O    1     1.6147     3.0513 143 SI   0 1 0
  51 O    1     1.6430     3.1048 142 SI   1 0 0
  51 O    1     2.6213     4.9536  43 O    1 0 0
  51 O    1     2.6432     4.9950  20 O    1 0 0
  51 O    1     2.6466     5.0013  46 O    0 0 0
  51 O    1     2.6778     5.0603  25 O    1 1 0

  52 O    1     1.6263     3.0733 132 SI   0-1 0
  52 O    1     1.6625     3.1417  65 SI   0 0 0
  52 O    1     2.6271     4.9645  49 O    0-1 0
  52 O    1     2.6531     5.0137  19 O    0-1 0
  52 O    1     2.6723     5.0500  17 O    0-1 0
  52 O    1     3.0693     5.8001  38 O    0 0 0

  53 O    1     1.5288     2.8890 147 SI   0 0 0
  53 O    1     2.6613     5.0292  30 O    0 0 0
  53 O    1     2.6933     5.0897  24 O    0 0 0
  53 O    1     2.8946     5.4700  48 O    0 0 0
  53 O    1     3.1200     5.8959  44 O    0 0 0
  53 O    1     3.1695     5.9894  33 O    0 0 0

  54 O    1     1.6484     3.1151 144 SI   0 0 0
  54 O    1     1.8983     3.5873 145 SI   0 0 0
  54 O    1     1.9185     3.6255 146 SI   0 0 0
  54 O    1     2.2816     4.3115  30 O    0 0 0
[...]
  13.9907205  13.9964603  13.9931804  13.9986820  13.9905465  14.0055826
  14.0027050  13.9967782  13.9871818  14.0642737  14.0063687  13.9883187
  13.9916736  14.0099945  14.0655689  14.0367896  13.6153353  14.0789421
  14.0003229  14.0407752  13.9784954  14.0784063  13.0934070  13.9304317
  13.9924230  14.0017713  13.9671472  14.0677283  14.0147092  13.6609325
  13.3190832  12.8732357  13.3337824  13.3121141  12.7202600  12.6645303
  13.4354137  13.2963327  13.3710746  12.9739386  12.7812586  12.7388185
  12.7653624  12.9213504  12.8366717  12.6227246  12.8153483  12.8567820
  12.8622520  12.7202586  12.7068063  12.7163665  12.7609003  12.5913356
  12.7886660  12.7456415  12.8736626  12.8866778
 SUMMED SPIN DENSITY           0.00000000
 TOTAL ATOMIC SPINS  :
  -0.0030864  -0.0001572   0.0003760   0.0000223  -0.0005561   0.0000447
  -0.0010206  -0.0016565  -0.0001040  -0.0037724   0.0000838  -0.0000548
  -0.0000646  -0.0001731  -0.0001284  -0.0004820  -0.0065942  -0.0000018
  -0.0010955  -0.0042209   0.0061715   0.0020294  -0.0001596   0.0023921
   0.0006526   0.0000070  -0.0173164   0.0026895  -0.0000529  -0.0000082
   0.0000390   0.0002436  -0.0005868   0.0000247   0.0005679  -0.0007557
   0.0000603  -0.0206556   0.0000138  -0.0027038   0.0299483  -0.0004813
  -0.0005959   0.0014017  -0.0002498  -0.0139668  -0.0095437  -0.0028262
   0.0024695   0.0025955   0.0006048   0.0015527   0.0004365  -0.0000284
  -0.0002430   0.0000368   0.2822441  -0.6153769  -0.0261775  -0.0382662
   0.0223723   0.0066740   0.0037232   0.0447912   0.0438907   0.0131817
   0.0172543   0.4965563   0.0000800  -0.0608880   0.0065717   0.0202007
   0.5742000   0.0458869   0.0077396   0.0380395  -0.0209897   0.0264827
  -0.0235549   0.0147795   0.0071751   0.0159174  -0.0005727   0.0154170
  -0.0230483   0.0071966   0.0119685   0.0264753   0.0086628  -0.0016322
   0.0355873  -0.0117578   0.0414891  -0.0075817   0.0054413   0.0033799
  -0.0002719   0.0062698  -0.0010666   0.0015645  -0.0039213   0.0016416
  -0.0067325   0.0030016   0.0012782  -0.0005394  -0.0012552  -0.0417813
   0.0005885  -0.0041827   0.0048613   0.0001177   0.0020934   0.0014598
  -0.0008260   0.0077902  -0.0012826   0.0015558   0.0018311   0.0014418
  -0.0013446  -0.0000256   0.0001368  -0.0002369   0.0003034  -0.0000269
   0.0068787  -0.0429870  -0.0006553   0.0005536  -0.0116979  -0.0099035
   0.0024173  -0.0045073   0.0028247  -0.0029769  -0.0002098  -0.0102547
  -0.0001899  -0.0021762  -0.0007193  -0.0024773  -0.0040266  -0.0005032
   0.0001083   0.0001067  -0.0005652  -0.8661355
 TTTTTTTTTTTTTTTTTTTTTTTTTTTTTT MOQGAD      TELAPSE    26254.96 TCPU    24807.05
 WARNING **** GENBUD **** COUL. BIPO BUFFER TOO SMALL - TO AVOID I/O SET BIPOSIZE =     1919025
 TTTTTTTTTTTTTTTTTTTTTTTTTTTTTT SHELLX      TELAPSE    26330.25 TCPU    24881.22
 TTTTTTTTTTTTTTTTTTTTTTTTTTTTTT MONMO3      TELAPSE    26348.12 TCPU    24899.06
 NUMERICALLY INTEGRATED DENSITY    868.0002545534    868.0002530037
 TTTTTTTTTTTTTTTTTTTTTTTTTTTTTT NUMDFT      TELAPSE    26353.87 TCPU    24904.80
 CYC 132 ETOT(AU) -3.084429834499E+04 DETOT -2.93E-07 tst  1.34E-09 PX  1.38E-04
 MODIFIED BROYDEN: MIX%=  90 W0=  1.000000000000E-04 W=  1.651291805867E+02
 TTTTTTTTTTTTTTTTTTTTTTTTTTTTTT FDIK        TELAPSE    26460.65 TCPU    25005.41

    ALPHA      ELECTRONS
 INSULATING STATE
 TOP OF VALENCE BANDS -    BAND    868; K    8; EIG -1.0812083E-01 AU
 TOP OF VALENCE BANDS -    BAND    868; K    1; EIG -1.1122320E-01 AU
 BOTTOM OF VIRTUAL BANDS - BAND    869; K    1; EIG -1.0606139E-01 AU

    BETA       ELECTRONS
 INSULATING STATE
 TOP OF VALENCE BANDS -    BAND    868; K    4; EIG -1.1109989E-01 AU
 TOP OF VALENCE BANDS -    BAND    868; K    1; EIG -1.1122320E-01 AU
 BOTTOM OF VIRTUAL BANDS - BAND    869; K    7; EIG -9.7154517E-02 AU
 BOTTOM OF VIRTUAL BANDS - BAND    869; K    1; EIG -1.0606139E-01 AU
 TTTTTTTTTTTTTTTTTTTTTTTTTTTTTT PDIG        TELAPSE    26464.19 TCPU    25008.94
 CHARGE NORMALIZATION FACTOR   1.00000000
 TOTAL ATOMIC CHARGES:
   8.6807307   8.6201668   8.7090414   8.6424950   8.5188773   8.6078185
   8.6561413   8.6398085   8.6662586   8.7895264   8.6184022   8.7104084
   8.7523819   8.6334754   8.6186924   8.8073549   8.5930714   8.5508853
   8.6522952   8.5550748   8.5046315   8.6126331   8.5635604   8.6385046
   8.8482144   8.5993210   8.6859570   8.5825999   8.6476980   8.5954579
   8.5803402   8.6779497   8.6916866   8.6546792   8.5297935   8.5676467
   8.7153118   8.6179062   8.5669156   8.6570265   8.5038847   8.5333820
   8.5485644   8.5666364   8.6078183   8.6847304   8.7945315   8.6749714
   8.6457213   8.5759995   8.5556148   8.6268462   8.5336205   8.8886013
   8.7520901   8.6197967  13.4018287  13.4320045  14.1080350  14.0542504
  13.9911033  13.9846597  13.9942686  13.9939454  13.5556047  13.6366622
  14.0943134  13.9438245  14.0124346  14.0535830  13.9876802  14.0093423
  13.8048232  13.6535125  14.0213828  14.1014492  14.0326524  14.0405852
  13.9760393  13.9963726  13.0955526  13.2806240  14.0480082  14.1026373
  14.0005231  14.0009970  13.9971924  13.9930595  13.9867180  14.0045668
  13.9907155  13.9964969  13.9931359  13.9986475  13.9905055  14.0054930
  14.0027001  13.9967398  13.9872060  14.0642354  14.0063841  13.9883119
  13.9916109  14.0099381  14.0654958  14.0367270  13.6152379  14.0791022
  14.0002762  14.0407453  13.9785395  14.0784205  13.0935166  13.9305054
  13.9923639  14.0017127  13.9671131  14.0677155  14.0146907  13.6609454
  13.3191007  12.8732390  13.3337980  13.3121137  12.7202618  12.6645151
  13.4354468  13.2965470  13.3711092  12.9739581  12.7812657  12.7388386
  12.7653106  12.9213376  12.8366712  12.6227129  12.8153350  12.8567596
  12.8622431  12.7202657  12.7068007  12.7164037  12.7608866  12.5913547
  12.7886601  12.7456402  12.8736058  12.8868038
 SUMMED SPIN DENSITY           0.00000000
 TOTAL ATOMIC SPINS  :
  -0.0030823  -0.0001567   0.0003751   0.0000222  -0.0005554   0.0000446
  -0.0010206  -0.0016544  -0.0001038  -0.0037662   0.0000834  -0.0000546
  -0.0000644  -0.0001731  -0.0001281  -0.0004821  -0.0065954  -0.0000018
  -0.0010956  -0.0042213   0.0061703   0.0020286  -0.0001596   0.0023880
   0.0006529   0.0000071  -0.0173184   0.0026898  -0.0000531  -0.0000081
   0.0000390   0.0002435  -0.0005879   0.0000247   0.0005675  -0.0007556
   0.0000600  -0.0206628   0.0000136  -0.0027044   0.0299426  -0.0004803
  -0.0005963   0.0013794  -0.0002488  -0.0139650  -0.0095507  -0.0028262
   0.0024652   0.0025957   0.0006046   0.0015535   0.0004328  -0.0000281
  -0.0002429   0.0000366   0.2820609  -0.6153868  -0.0261740  -0.0382657
   0.0223473   0.0066551   0.0037252   0.0447950   0.0438968   0.0131926
   0.0172394   0.4966505   0.0000797  -0.0608832   0.0065791   0.0201961
   0.5741769   0.0458913   0.0077419   0.0380210  -0.0209883   0.0264815
  -0.0235558   0.0147689   0.0071761   0.0159158  -0.0005715   0.0154164
  -0.0230430   0.0071962   0.0119718   0.0264748   0.0086649  -0.0016306
   0.0355885  -0.0117564   0.0414881  -0.0075805   0.0054428   0.0033807
  -0.0002726   0.0062729  -0.0010657   0.0015720  -0.0039141   0.0016416
  -0.0067253   0.0030044   0.0012776  -0.0005389  -0.0012542  -0.0417431
   0.0005897  -0.0041813   0.0048669   0.0001249   0.0021028   0.0014610
  -0.0008250   0.0077902  -0.0012758   0.0015570   0.0018319   0.0014425
  -0.0013423  -0.0000255   0.0001430  -0.0002347   0.0003046  -0.0000267
   0.0068821  -0.0429465  -0.0006542   0.0005544  -0.0116958  -0.0099021
   0.0024281  -0.0045056   0.0028247  -0.0029772  -0.0002097  -0.0102522
  -0.0001917  -0.0021756  -0.0007190  -0.0024764  -0.0040269  -0.0005022
   0.0001083   0.0001065  -0.0005647  -0.8661184
 TTTTTTTTTTTTTTTTTTTTTTTTTTTTTT MOQGAD      TELAPSE    26464.29 TCPU    25009.04
 WARNING **** GENBUD **** COUL. BIPO BUFFER TOO SMALL - TO AVOID I/O SET BIPOSIZE =     1919025
 TTTTTTTTTTTTTTTTTTTTTTTTTTTTTT SHELLX      TELAPSE    26539.59 TCPU    25083.34
 TTTTTTTTTTTTTTTTTTTTTTTTTTTTTT MONMO3      TELAPSE    26549.40 TCPU    25093.13
 NUMERICALLY INTEGRATED DENSITY    868.0002545493    868.0002530003
 TTTTTTTTTTTTTTTTTTTTTTTTTTTTTT NUMDFT      TELAPSE    26555.12 TCPU    25098.84
 CYC 133 ETOT(AU) -3.084429834509E+04 DETOT -1.03E-07 tst  1.59E-09 PX  9.87E-05
 MODIFIED BROYDEN: MIX%=  90 W0=  1.000000000000E-04 W=  2.691976691957E+02
 TTTTTTTTTTTTTTTTTTTTTTTTTTTTTT FDIK        TELAPSE    26635.76 TCPU    25174.05

    ALPHA      ELECTRONS
 INSULATING STATE
 TOP OF VALENCE BANDS -    BAND    868; K    8; EIG -1.0811899E-01 AU
 TOP OF VALENCE BANDS -    BAND    868; K    1; EIG -1.1122162E-01 AU
 BOTTOM OF VIRTUAL BANDS - BAND    869; K    1; EIG -1.0606211E-01 AU

    BETA       ELECTRONS
 INSULATING STATE
 TOP OF VALENCE BANDS -    BAND    868; K    4; EIG -1.1110047E-01 AU
 TOP OF VALENCE BANDS -    BAND    868; K    1; EIG -1.1122162E-01 AU
 BOTTOM OF VIRTUAL BANDS - BAND    869; K    7; EIG -9.7153782E-02 AU
 BOTTOM OF VIRTUAL BANDS - BAND    869; K    1; EIG -1.0606211E-01 AU
 TTTTTTTTTTTTTTTTTTTTTTTTTTTTTT PDIG        TELAPSE    26638.81 TCPU    25177.09
 CHARGE NORMALIZATION FACTOR   1.00000000
 TOTAL ATOMIC CHARGES:
   8.6807246   8.6201689   8.7090315   8.6424862   8.5188671   8.6078247
   8.6561072   8.6398129   8.6662627   8.7895408   8.6184266   8.7104162
   8.7523606   8.6334775   8.6186998   8.8073622   8.5930607   8.5508837
   8.6522905   8.5550624   8.5046323   8.6126429   8.5635662   8.6385034
   8.8482165   8.5993212   8.6859642   8.5825933   8.6477007   8.5954570
   8.5803306   8.6779510   8.6916928   8.6546835   8.5297938   8.5676466
   8.7153066   8.6179106   8.5669167   8.6570203   8.5039310   8.5333823
   8.5485562   8.5666335   8.6078033   8.6847211   8.7945406   8.6749761
   8.6457222   8.5759832   8.5556122   8.6268389   8.5336501   8.8886040
   8.7520857   8.6197970  13.4018694  13.4319376  14.1080059  14.0542652
  13.9911141  13.9846447  13.9942361  13.9939266  13.5555816  13.6366435
  14.0942955  13.9437872  14.0124085  14.0535783  13.9876763  14.0093326
  13.8049601  13.6535619  14.0213910  14.1014685  14.0326655  14.0406071
  13.9760663  13.9964009  13.0955366  13.2806177  14.0480391  14.1026394
  14.0005187  14.0009938  13.9971822  13.9930424  13.9866891  14.0045480
  13.9907360  13.9964579  13.9931217  13.9986599  13.9905038  14.0055055
  14.0027107  13.9967184  13.9872545  14.0642005  14.0063924  13.9883196
  13.9915575  14.0099194  14.0654929  14.0367202  13.6152453  14.0790466
  14.0003000  14.0407560  13.9785643  14.0784472  13.0935417  13.9305661
  13.9923625  14.0017354  13.9671035  14.0677551  14.0146955  13.6609710
  13.3191007  12.8732391  13.3337984  13.3120854  12.7202714  12.6645131
  13.4354339  13.2965039  13.3711200  12.9739535  12.7812600  12.7388509
  12.7653024  12.9213142  12.8366686  12.6227042  12.8153311  12.8567556
  12.8622455  12.7202636  12.7067964  12.7164164  12.7608815  12.5913529
  12.7886653  12.7456417  12.8735744  12.8868083
 SUMMED SPIN DENSITY           0.00000000
 TOTAL ATOMIC SPINS  :
  -0.0030861  -0.0001569   0.0003745   0.0000221  -0.0005558   0.0000445
  -0.0010208  -0.0016558  -0.0001038  -0.0037694   0.0000836  -0.0000549
  -0.0000649  -0.0001732  -0.0001282  -0.0004824  -0.0065953  -0.0000019
  -0.0010957  -0.0042214   0.0061708   0.0020277  -0.0001598   0.0023887
   0.0006519   0.0000071  -0.0173192   0.0026900  -0.0000530  -0.0000082
   0.0000383   0.0002434  -0.0005879   0.0000246   0.0005673  -0.0007556
   0.0000599  -0.0206644   0.0000136  -0.0027050   0.0299444  -0.0004811
  -0.0005969   0.0013819  -0.0002500  -0.0139634  -0.0095528  -0.0028266
   0.0024624   0.0025954   0.0006044   0.0015534   0.0004334  -0.0000282
  -0.0002430   0.0000366   0.2821184  -0.6153868  -0.0261775  -0.0382697
   0.0223540   0.0066595   0.0037248   0.0447959   0.0438958   0.0131907
   0.0172394   0.4966254   0.0000799  -0.0608831   0.0065792   0.0201977
   0.5742072   0.0458935   0.0077420   0.0380196  -0.0209842   0.0264841
  -0.0235576   0.0147707   0.0071756   0.0159158  -0.0005703   0.0154159
  -0.0230425   0.0071957   0.0119721   0.0264763   0.0086653  -0.0016299
   0.0355885  -0.0117573   0.0414879  -0.0075818   0.0054430   0.0033804
  -0.0002724   0.0062736  -0.0010642   0.0015753  -0.0039197   0.0016415
  -0.0067288   0.0030022   0.0012781  -0.0005386  -0.0012530  -0.0417778
   0.0005893  -0.0041818   0.0048695   0.0001237   0.0021090   0.0014604
  -0.0008245   0.0077909  -0.0012786   0.0015576   0.0018318   0.0014424
  -0.0013421  -0.0000254   0.0001451  -0.0002338   0.0003048  -0.0000267
   0.0068838  -0.0429962  -0.0006541   0.0005548  -0.0116952  -0.0099021
   0.0024340  -0.0045054   0.0028247  -0.0029770  -0.0002096  -0.0102515
  -0.0001918  -0.0021753  -0.0007188  -0.0024768  -0.0040268  -0.0005028
   0.0001086   0.0001066  -0.0005647  -0.8661042
 TTTTTTTTTTTTTTTTTTTTTTTTTTTTTT MOQGAD      TELAPSE    26638.89 TCPU    25177.17
 WARNING **** GENBUD **** COUL. BIPO BUFFER TOO SMALL - TO AVOID I/O SET BIPOSIZE =     1919025
 TTTTTTTTTTTTTTTTTTTTTTTTTTTTTT SHELLX      TELAPSE    26714.11 TCPU    25251.52
 TTTTTTTTTTTTTTTTTTTTTTTTTTTTTT MONMO3      TELAPSE    26720.62 TCPU    25258.01
 NUMERICALLY INTEGRATED DENSITY    868.0002545492    868.0002530002
 TTTTTTTTTTTTTTTTTTTTTTTTTTTTTT NUMDFT      TELAPSE    26726.45 TCPU    25263.84
 CYC 134 ETOT(AU) -3.084429834510E+04 DETOT -1.39E-08 tst  2.01E-10 PX  3.84E-05
 MODIFIED BROYDEN: MIX%=  90 W0=  1.000000000000E-04 W=  2.707978758929E+02
 TTTTTTTTTTTTTTTTTTTTTTTTTTTTTT FDIK        TELAPSE    26798.97 TCPU    25331.47

    ALPHA      ELECTRONS
 INSULATING STATE
 TOP OF VALENCE BANDS -    BAND    868; K    8; EIG -1.0820703E-01 AU
 TOP OF VALENCE BANDS -    BAND    868; K    1; EIG -1.1124792E-01 AU
 BOTTOM OF VIRTUAL BANDS - BAND    869; K    1; EIG -1.0594809E-01 AU

    BETA       ELECTRONS
 INSULATING STATE
 TOP OF VALENCE BANDS -    BAND    868; K    4; EIG -1.1123126E-01 AU
 TOP OF VALENCE BANDS -    BAND    868; K    1; EIG -1.1124792E-01 AU
 BOTTOM OF VIRTUAL BANDS - BAND    869; K    7; EIG -9.7113750E-02 AU
 BOTTOM OF VIRTUAL BANDS - BAND    869; K    1; EIG -1.0594809E-01 AU
 TTTTTTTTTTTTTTTTTTTTTTTTTTTTTT PDIG        TELAPSE    26802.00 TCPU    25334.50
 CHARGE NORMALIZATION FACTOR   1.00000000
 TOTAL ATOMIC CHARGES:
   8.6811251   8.6202273   8.7089987   8.6424576   8.5189160   8.6078505
   8.6560507   8.6399904   8.6663242   8.7900861   8.6185282   8.7105304
   8.7523225   8.6334786   8.6187589   8.8074725   8.5929949   8.5508626
   8.6522676   8.5551511   8.5046114   8.6126225   8.5635118   8.6382692
   8.8482296   8.5993687   8.6859879   8.5826451   8.6477518   8.5953740
   8.5802255   8.6779939   8.6915207   8.6546503   8.5298627   8.5676446
   8.7152875   8.6179001   8.5669646   8.6570035   8.5036947   8.5333966
   8.5485925   8.5658775   8.6076388   8.6847278   8.7945868   8.6750073
   8.6457778   8.5759492   8.5556210   8.6268167   8.5335153   8.8885879
   8.7521041   8.6197514  13.3932528  13.4313454  14.1077813  14.0539456
  13.9898983  13.9834654  13.9939399  13.9939131  13.5553826  13.6364765
  14.0930698  13.9446811  14.0120058  14.0536801  13.9878394  14.0089176
  13.8046980  13.6534374  14.0213213  14.1002811  14.0326563  14.0402588
  13.9759773  13.9959320  13.0955684  13.2802143  14.0477574  14.1023243
  14.0005566  14.0008438  13.9972349  13.9928488  13.9865483  14.0045604
  13.9906700  13.9965275  13.9932203  13.9985599  13.9907299  14.0055399
  14.0027633  13.9968588  13.9875385  14.0646079  14.0073639  13.9886024
  13.9920308  14.0102048  14.0656808  14.0369258  13.6155215  14.0826212
  14.0004399  14.0408099  13.9791406  14.0792132  13.0941860  13.9310787
  13.9926631  14.0017890  13.9678498  14.0680010  14.0150234  13.6613506
  13.3191309  12.8732684  13.3343971  13.3122774  12.7203593  12.6645159
  13.4355805  13.3002865  13.3713858  12.9740746  12.7812906  12.7388721
  12.7654316  12.9215054  12.8366498  12.6226902  12.8152949  12.8567791
  12.8622218  12.7202618  12.7067618  12.7164067  12.7608934  12.5914581
  12.7886623  12.7456270  12.8735889  12.8867361
 SUMMED SPIN DENSITY           0.00000000
 TOTAL ATOMIC SPINS  :
  -0.0028791  -0.0001421   0.0003645   0.0000229  -0.0005210   0.0000482
  -0.0010035  -0.0015674  -0.0001015  -0.0035037   0.0000869  -0.0000398
  -0.0000516  -0.0001653  -0.0001267  -0.0004760  -0.0065929  -0.0000010
  -0.0010950  -0.0042253   0.0061716   0.0020342  -0.0001603   0.0022906
   0.0006509   0.0000058  -0.0173088   0.0026887  -0.0000536  -0.0000096
   0.0000567   0.0002423  -0.0006189   0.0000284   0.0005584  -0.0007536
   0.0000608  -0.0206763   0.0000078  -0.0027131   0.0299676  -0.0004397
  -0.0005982   0.0007581  -0.0001976  -0.0139460  -0.0095536  -0.0028233
   0.0024532   0.0025989   0.0006041   0.0015594   0.0003276  -0.0000249
  -0.0002398   0.0000331   0.2756593  -0.6154860  -0.0261251  -0.0382961
   0.0216317   0.0060208   0.0037868   0.0448374   0.0439016   0.0131567
   0.0167923   0.4972724   0.0000291  -0.0608405   0.0066576   0.0197775
   0.5742687   0.0459296   0.0077549   0.0376668  -0.0209068   0.0264982
  -0.0235791   0.0144239   0.0071995   0.0158105  -0.0005494   0.0153893
  -0.0230272   0.0071869   0.0120493   0.0265209   0.0087450  -0.0015864
   0.0354562  -0.0116840   0.0414679  -0.0075463   0.0055521   0.0034174
  -0.0002857   0.0063227  -0.0010486   0.0017859  -0.0034106   0.0016555
  -0.0063560   0.0031218   0.0012768  -0.0005139  -0.0012067  -0.0397597
   0.0006181  -0.0041093   0.0049799   0.0004589   0.0023201   0.0015860
  -0.0007351   0.0077856  -0.0009779   0.0016036   0.0018741   0.0015025
  -0.0012211  -0.0000252   0.0003545  -0.0001643   0.0003304  -0.0000223
   0.0070060  -0.0405236  -0.0005630   0.0005851  -0.0117049  -0.0099029
   0.0027039  -0.0044977   0.0028221  -0.0029726  -0.0002088  -0.0102596
  -0.0002494  -0.0021710  -0.0007130  -0.0024788  -0.0040301  -0.0004313
   0.0001189   0.0001080  -0.0005879  -0.8660340
 TTTTTTTTTTTTTTTTTTTTTTTTTTTTTT MOQGAD      TELAPSE    26802.18 TCPU    25334.68
 WARNING **** GENBUD **** COUL. BIPO BUFFER TOO SMALL - TO AVOID I/O SET BIPOSIZE =     1919025
 TTTTTTTTTTTTTTTTTTTTTTTTTTTTTT SHELLX      TELAPSE    26877.46 TCPU    25409.83
 +++ ENERGIES IN A.U. +++
 ::: EXT EL-POLE                                  -4.2022578567832E+04
 ::: EXT EL-SPHEROPOLE                             3.1011091836472E+02
 ::: BIELET ZONE E-E                               5.1425328969252E+04
 ::: TOTAL E-E                                     9.7128613197845E+03
 ::: TOTAL E-N + N-E                              -6.3944616202163E+04
 ::: TOTAL N-N                                    -5.0615330659840E+03
 ::: KINETIC ENERGY                                3.0736332417357E+04
 ::: PSEUDO TOTAL   ENERGY                        -2.8556955531005E+04
 ::: VIRIAL COEFFICIENT                            1.0367558784773E+00
 TTTTTTTTTTTTTTTTTTTTTTTTTTTTTT MONMO3      TELAPSE    26883.20 TCPU    25415.55
 NUMERICALLY INTEGRATED DENSITY    868.0002545202    868.0002529702
 TTTTTTTTTTTTTTTTTTTTTTTTTTTTTT NUMDFT      TELAPSE    26889.24 TCPU    25421.58
 CYC 135 ETOT(AU) -3.084429830195E+04 DETOT  4.32E-05 tst  1.59E-06 PX  3.84E-05

 == SCF ENDED - CONVERGENCE ON ENERGY      E(AU) -3.0844298301946E+04 CYCLES 135


 ENERGY EXPRESSION=HARTREE+FOCK EXCH*0.05000+(BECKE  EXCH)*0.95000+LYP    CORR

 FINITE TEMPERATURE DFT CALCULATION 
 TEMPERATURE      (T)    1.000000000000E-13 HARTREE 
 ENERGY           (E)   -3.084429830195E+04
 FREE ENERGY      (F)   -3.084429830195E+04
 ELECTRON ENTROPY (S)    0.000000000000E+00
 (E(T)+F(T))/2    (E0)  -3.084429830195E+04


 TOTAL ENERGY(DFT)(AU)(135) -3.0844298301946E+04 DE 4.3E-05 tester 1.6E-06
 TTTTTTTTTTTTTTTTTTTTTTTTTTTTTT EDFT        TELAPSE    26889.53 TCPU    25421.83
 EIGENVECTORS IN FORTRAN UNIT 10
 TTTTTTTTTTTTTTTTTTTTTTTTTTTTTT END         TELAPSE    26935.06 TCPU    25467.04
 EEEEEEEEEE TERMINATION  DATE 13 07 2014 TIME 18:16:26.4
NODE    0 CPU TIME =     25467.036
    TOTAL CPU TIME =   4898972.935
