
         
 *******************************************************************************
 *                                                                             *
 *                                CRYSTAL09                                    *
 *                              public : 2.0                                   *
 *                      December 10th, 2012 - sequential executable            *
 *                                                                             *
 *                                                                             *
 *                                                                             *
 *                              MAIN AUTHORS                                   *
 *                                                                             *
 *    R. DOVESI(1,10), V.R. SAUNDERS(2), C. ROETTI(1,10), R. ORLANDO (1,3),    *
 *  C.M. ZICOVICH-WILSON(1,4), F. PASCALE(5), B. CIVALLERI(1,10), K. DOLL(6),  *
 *       N.M. HARRISON(2,7), I. J. BUSH(2), Ph. D'ARCO(8), M. LLUNELL(9)       *
 *                                                                             *
 * (1) THEORETICAL CHEMISTRY GROUP - UNIVERSITA' DI TORINO - TORINO (ITALY)    *
 *      http://www.crystal.unito.it                                            *
 * (2) COMPUTATIONAL SCIENCE & ENGINEERING DEPARTMENT - CCLRC DARESBURY (UK)   *
 *     http://www.cse.clrc.ac.uk/cmg/CRYSTAL/                                  *
 * (3) UNIVERSITA' DEL PIEMONTE ORIENTALE - ALESSANDRIA (ITALY)                *
 * (4) UNIVERSIDAD AUTONOMA DEL ESTADO DE MORELOS - CUERNAVACA (MEXICO)        *
 * (5) UNIVERSITE' HENRI POINCARE' - NANCY (FRANCE)                            *
 * (6) MPI FUER FESTKOERPERFORSCHUNG - STUTTGART (GERMANY)                     *
 * (7) IMPERIAL COLLEGE - LONDON (UK)                                          *
 * (8) UNIVERSITE' PIERRE ET MARIE CURIE - PARIS (FRANCE)                      *
 * (9) UNIVERSIDAD DE BARCELONA - BARCELONA (SPAIN)                            *
 *(10) NIS - NANOSTRUCTURED INTERFACES AND SURFACES - TORINO (ITALY)           *
 *     http://www.crystal.unito.it                                             *
 *******************************************************************************
 EEEEEEEEEE STARTING  DATE 14 10 2015 TIME 15:53:34.2
 Created with astools                                                            

 CRYSTAL CALCULATION
 (INPUT ACCORDING TO THE INTERNATIONAL TABLES FOR X-RAY CRYSTALLOGRAPHY)
 CRYSTAL FAMILY                       :  TRICLINIC   
 CRYSTAL CLASS  (GROTH - 1921)        :  TRICLINIC PEDIAL                     

 SPACE GROUP (NONCENTROSYMMETRIC)     :  P 1             

 LATTICE PARAMETERS  (ANGSTROMS AND DEGREES) - CONVENTIONAL CELL
        A           B           C        ALPHA        BETA       GAMMA
    10.23220     9.97141    10.17550    90.00000    90.00000    90.00000


 NUMBER OF IRREDUCIBLE ATOMS IN THE CONVENTIONAL CELL:   96

 INPUT COORDINATES

 ATOM AT. N.              COORDINATES
   1   8     5.392060000000E-01  5.688890000000E-01  5.364840000000E-01
   2   8     8.421940000000E-01  2.045700000000E-01  8.557530000000E-01
   3   8     7.535360000000E-01  1.974410000000E-01  3.310200000000E-01
   4   8     5.872650000000E-01  2.005840000000E-01  8.876670000000E-01
   5   8     4.595000000000E-01  1.675500000000E-02  7.733180000000E-01
   6   8     2.206170000000E-01  3.863380000000E-01  4.729380000000E-01
   7   8     4.189000000000E-01  8.167650000000E-01  6.419390000000E-01
   8   8     6.740610000000E-01  7.473640000000E-01  9.620750000000E-01
   9   8     1.964390000000E-01  6.054300000000E-02  7.960260000000E-01
  10   8     3.784560000000E-01  4.864990000000E-01  6.851690000000E-01
  11   8     2.518660000000E-01  5.379160000000E-01  8.861090000000E-01
  12   8     7.255000000000E-02  2.771220000000E-01  9.660600000000E-01
  13   8     9.320400000000E-01  3.208270000000E-01  6.632780000000E-01
  14   8     9.703600000000E-01  3.023050000000E-01  4.360420000000E-01
  15   8     1.581560000000E-01  3.501410000000E-01  7.575950000000E-01
  16   8     5.531030000000E-01  2.614400000000E-01  4.724040000000E-01
  17   8     9.540830000000E-01  1.386900000000E-02  6.988010000000E-01
  18   8     9.183940000000E-01  1.016595000000E+00  4.252730000000E-01
  19   8     2.958460000000E-01  7.433000000000E-01  4.256170000000E-01
  20   8     6.604770000000E-01  7.351190000000E-01  6.931500000000E-01
  21   8     8.790970000000E-01  4.412580000000E-01  9.914160000000E-01
  22   8     6.135920000000E-01  9.728520000000E-01  5.287190000000E-01
  23   8     7.896840000000E-01  1.517860000000E-01  9.229400000000E-02
  24   8     7.104920000000E-01  9.812500000000E-01  7.711890000000E-01
  25   8     3.270460000000E-01  2.016700000000E-01  9.842050000000E-01
  26   8     1.556880000000E-01  1.416740000000E-01  5.780920000000E-01
  27   8    -8.038000000000E-03  7.696050000000E-01  2.993920000000E-01
  28   8     7.410300000000E-01  5.448050000000E-01  8.291420000000E-01
  29   8     5.062360000000E-01  6.190720000000E-01  1.174070000000E-01
  30   8     9.060960000000E-01  7.851030000000E-01  8.508880000000E-01
  31   8     2.360360000000E-01  7.130790000000E-01  1.757950000000E-01
  32   8     1.889160000000E-01  9.588860000000E-01  1.338520000000E-01
  33   8     4.366050000000E-01  1.633200000000E-02  2.029690000000E-01
  34   8     1.545630000000E-01  9.483110000000E-01  3.884690000000E-01
  35   8     8.878190000000E-01  9.004250000000E-01  9.837600000000E-02
  36   8     6.747300000000E-01  3.976810000000E-01  8.649300000000E-02
  37   8     4.011440000000E-01  2.298910000000E-01  6.689210000000E-01
  38   8     9.969010000000E-01  1.463100000000E-01  2.121210000000E-01
  39   8     4.390510000000E-01  8.382270000000E-01  1.929700000000E-02
  40   8     6.495450000000E-01  3.561190000000E-01  6.918940000000E-01
  41   8     5.034080000000E-01  4.345050000000E-01  8.956280000000E-01
  42   8     4.932000000000E-02  5.673630000000E-01  4.049860000000E-01
  43   8     4.963600000000E-01  7.904170000000E-01  3.107030000000E-01
  44   8     6.279880000000E-01  9.727960000000E-01  4.070000000000E-03
  45   8     2.078820000000E-01  7.788750000000E-01  8.907060000000E-01
  46   8     2.073860000000E-01  2.376670000000E-01  2.619630000000E-01
  47   8     8.496950000000E-01  5.270410000000E-01  5.473530000000E-01
  48   8     2.988270000000E-01  4.572680000000E-01  1.119990000000E-01
  49   8     7.684850000000E-01  6.709250000000E-01  1.808370000000E-01
  50   8     7.627530000000E-01  1.494010000000E-01  5.904960000000E-01
  51   8     3.884450000000E-01  2.825400000000E-02  4.438000000000E-01
  52   8     4.070600000000E-01  4.583030000000E-01  3.313180000000E-01
  53   8     2.390400000000E-02  6.406790000000E-01  2.739600000000E-02
  54   8    -5.253000000000E-03  5.485840000000E-01  7.631570000000E-01
  55   8     7.690020000000E-01  4.480750000000E-01  3.314790000000E-01
  56   8     6.664970000000E-01  9.589100000000E-01  2.593510000000E-01
  57   8     1.648470000000E-01  6.128780000000E-01  6.061480000000E-01
  58   8     1.837140000000E-01  8.581320000000E-01  6.470980000000E-01
  59   8     7.366760000000E-01  7.621100000000E-01  4.442280000000E-01
  60   8     1.731300000000E-02  3.601700000000E-02  9.434460000000E-01
  61   8     9.403650000000E-01  7.855710000000E-01  5.785250000000E-01
  62   8     5.219980000000E-01  2.322550000000E-01  1.892980000000E-01
  63   8     4.532750000000E-01  6.800030000000E-01  8.376810000000E-01
  64   8     1.576100000000E-02  4.219490000000E-01  1.983430000000E-01
  65 272     3.453330000000E-01  3.376310000000E-01  8.252810000000E-01
  66 272     4.852680000000E-01  4.301040000000E-01  1.618640000000E-01
  67 272     8.427300000000E-01  2.725500000000E-02  2.465300000000E-01
  68 272     8.162720000000E-01  2.849200000000E-02  9.411830000000E-01
  69 272     5.695400000000E-02  4.454420000000E-01  5.766730000000E-01
  70 272     5.978060000000E-01  8.074810000000E-01  1.372390000000E-01
  71 272     6.981000000000E-02  4.685010000000E-01  9.193470000000E-01
  72 272     5.979420000000E-01  1.486660000000E-01  6.943450000000E-01
  73 272     7.411200000000E-02  9.006390000000E-01  8.075160000000E-01
  74 272     5.435330000000E-01  7.703760000000E-01  4.945300000000E-01
  75 272     1.147350000000E-01  7.594600000000E-01  4.709210000000E-01
  76 272     7.175940000000E-01  3.548120000000E-01  8.980140000000E-01
  77 272     3.426240000000E-01  6.586610000000E-01  2.059200000000E-02
  78 272     8.508380000000E-01  6.298850000000E-01  3.601800000000E-01
  79 272     1.857340000000E-01  4.412960000000E-01  2.814670000000E-01
  80 272     2.849200000000E-01  6.928360000000E-01  7.279950000000E-01
  81 272     5.640810000000E-01  5.516410000000E-01  7.347740000000E-01
  82 272     5.599530000000E-01  8.554530000000E-01  8.379840000000E-01
  83 272     8.393470000000E-01  3.305680000000E-01  1.885250000000E-01
  84 272     8.094350000000E-01  9.546190000000E-01  5.725330000000E-01
  85 272     3.152160000000E-01  8.910170000000E-01  2.941190000000E-01
  86 272     4.166610000000E-01  3.973770000000E-01  5.130200000000E-01
  87 272     2.985900000000E-02  1.883220000000E-01  7.716200000000E-01
  88 272     7.862110000000E-01  3.241330000000E-01  5.053350000000E-01
  89 272     8.641400000000E-02  1.437730000000E-01  4.030950000000E-01
  90 272     8.517920000000E-01  6.610930000000E-01  6.964530000000E-01
  91 272     8.277110000000E-01  6.396620000000E-01  9.992270000000E-01
  92 272     6.564500000000E-02  8.025690000000E-01  1.292400000000E-01
  93 272     5.517760000000E-01  9.809900000000E-02  3.498150000000E-01
  94 272     3.093200000000E-01  2.274900000000E-02  6.377450000000E-01
  95 272     1.501440000000E-01  1.495410000000E-01  8.896600000000E-02
  96 272     4.902350000000E-01  1.129840000000E-01  4.113000000000E-02

 *******************************************************************************

 << INFORMATION >>: FROM NOW ON, ALL COORDINATES REFER TO THE PRIMITIVE CELL

 *******************************************************************************

 LATTICE PARAMETERS  (ANGSTROMS AND DEGREES) - PRIMITIVE CELL
       A          B          C         ALPHA     BETA     GAMMA        VOLUME
   10.23220    9.97141   10.17550    90.00000  90.00000  90.00000   1038.200784

 COORDINATES OF THE EQUIVALENT ATOMS (FRACTIONAL UNITS)

 N. ATOM EQUIV AT. N.          X                  Y                  Z

   1   1   1    8 O    -4.60794000000E-01 -4.31111000000E-01 -4.63516000000E-01

   2   2   1    8 O    -1.57806000000E-01  2.04570000000E-01 -1.44247000000E-01

   3   3   1    8 O    -2.46464000000E-01  1.97441000000E-01  3.31020000000E-01

   4   4   1    8 O    -4.12735000000E-01  2.00584000000E-01 -1.12333000000E-01

   5   5   1    8 O     4.59500000000E-01  1.67550000000E-02 -2.26682000000E-01

   6   6   1    8 O     2.20617000000E-01  3.86338000000E-01  4.72938000000E-01

   7   7   1    8 O     4.18900000000E-01 -1.83235000000E-01 -3.58061000000E-01

   8   8   1    8 O    -3.25939000000E-01 -2.52636000000E-01 -3.79250000000E-02

   9   9   1    8 O     1.96439000000E-01  6.05430000000E-02 -2.03974000000E-01

  10  10   1    8 O     3.78456000000E-01  4.86499000000E-01 -3.14831000000E-01

  11  11   1    8 O     2.51866000000E-01 -4.62084000000E-01 -1.13891000000E-01

  12  12   1    8 O     7.25500000000E-02  2.77122000000E-01 -3.39400000000E-02

  13  13   1    8 O    -6.79600000000E-02  3.20827000000E-01 -3.36722000000E-01

  14  14   1    8 O    -2.96400000000E-02  3.02305000000E-01  4.36042000000E-01

  15  15   1    8 O     1.58156000000E-01  3.50141000000E-01 -2.42405000000E-01

  16  16   1    8 O    -4.46897000000E-01  2.61440000000E-01  4.72404000000E-01

  17  17   1    8 O    -4.59170000000E-02  1.38690000000E-02 -3.01199000000E-01

  18  18   1    8 O    -8.16060000000E-02  1.65950000000E-02  4.25273000000E-01

  19  19   1    8 O     2.95846000000E-01 -2.56700000000E-01  4.25617000000E-01

  20  20   1    8 O    -3.39523000000E-01 -2.64881000000E-01 -3.06850000000E-01

  21  21   1    8 O    -1.20903000000E-01  4.41258000000E-01 -8.58400000000E-03

  22  22   1    8 O    -3.86408000000E-01 -2.71480000000E-02 -4.71281000000E-01

  23  23   1    8 O    -2.10316000000E-01  1.51786000000E-01  9.22940000000E-02

  24  24   1    8 O    -2.89508000000E-01 -1.87500000000E-02 -2.28811000000E-01

  25  25   1    8 O     3.27046000000E-01  2.01670000000E-01 -1.57950000000E-02

  26  26   1    8 O     1.55688000000E-01  1.41674000000E-01 -4.21908000000E-01

  27  27   1    8 O    -8.03800000000E-03 -2.30395000000E-01  2.99392000000E-01

  28  28   1    8 O    -2.58970000000E-01 -4.55195000000E-01 -1.70858000000E-01

  29  29   1    8 O    -4.93764000000E-01 -3.80928000000E-01  1.17407000000E-01

  30  30   1    8 O    -9.39040000000E-02 -2.14897000000E-01 -1.49112000000E-01

  31  31   1    8 O     2.36036000000E-01 -2.86921000000E-01  1.75795000000E-01

  32  32   1    8 O     1.88916000000E-01 -4.11140000000E-02  1.33852000000E-01

  33  33   1    8 O     4.36605000000E-01  1.63320000000E-02  2.02969000000E-01

  34  34   1    8 O     1.54563000000E-01 -5.16890000000E-02  3.88469000000E-01

  35  35   1    8 O    -1.12181000000E-01 -9.95750000000E-02  9.83760000000E-02

  36  36   1    8 O    -3.25270000000E-01  3.97681000000E-01  8.64930000000E-02

  37  37   1    8 O     4.01144000000E-01  2.29891000000E-01 -3.31079000000E-01

  38  38   1    8 O    -3.09900000000E-03  1.46310000000E-01  2.12121000000E-01

  39  39   1    8 O     4.39051000000E-01 -1.61773000000E-01  1.92970000000E-02

  40  40   1    8 O    -3.50455000000E-01  3.56119000000E-01 -3.08106000000E-01

  41  41   1    8 O    -4.96592000000E-01  4.34505000000E-01 -1.04372000000E-01

  42  42   1    8 O     4.93200000000E-02 -4.32637000000E-01  4.04986000000E-01

  43  43   1    8 O     4.96360000000E-01 -2.09583000000E-01  3.10703000000E-01

  44  44   1    8 O    -3.72012000000E-01 -2.72040000000E-02  4.07000000000E-03

  45  45   1    8 O     2.07882000000E-01 -2.21125000000E-01 -1.09294000000E-01

  46  46   1    8 O     2.07386000000E-01  2.37667000000E-01  2.61963000000E-01

  47  47   1    8 O    -1.50305000000E-01 -4.72959000000E-01 -4.52647000000E-01

  48  48   1    8 O     2.98827000000E-01  4.57268000000E-01  1.11999000000E-01

  49  49   1    8 O    -2.31515000000E-01 -3.29075000000E-01  1.80837000000E-01

  50  50   1    8 O    -2.37247000000E-01  1.49401000000E-01 -4.09504000000E-01

  51  51   1    8 O     3.88445000000E-01  2.82540000000E-02  4.43800000000E-01

  52  52   1    8 O     4.07060000000E-01  4.58303000000E-01  3.31318000000E-01

  53  53   1    8 O     2.39040000000E-02 -3.59321000000E-01  2.73960000000E-02

  54  54   1    8 O    -5.25300000000E-03 -4.51416000000E-01 -2.36843000000E-01

  55  55   1    8 O    -2.30998000000E-01  4.48075000000E-01  3.31479000000E-01

  56  56   1    8 O    -3.33503000000E-01 -4.10900000000E-02  2.59351000000E-01

  57  57   1    8 O     1.64847000000E-01 -3.87122000000E-01 -3.93852000000E-01

  58  58   1    8 O     1.83714000000E-01 -1.41868000000E-01 -3.52902000000E-01

  59  59   1    8 O    -2.63324000000E-01 -2.37890000000E-01  4.44228000000E-01

  60  60   1    8 O     1.73130000000E-02  3.60170000000E-02 -5.65540000000E-02

  61  61   1    8 O    -5.96350000000E-02 -2.14429000000E-01 -4.21475000000E-01

  62  62   1    8 O    -4.78002000000E-01  2.32255000000E-01  1.89298000000E-01

  63  63   1    8 O     4.53275000000E-01 -3.19997000000E-01 -1.62319000000E-01

  64  64   1    8 O     1.57610000000E-02  4.21949000000E-01  1.98343000000E-01

  65  65   1  272 HF    3.45333000000E-01  3.37631000000E-01 -1.74719000000E-01

  66  66   1  272 HF    4.85268000000E-01  4.30104000000E-01  1.61864000000E-01

  67  67   1  272 HF   -1.57270000000E-01  2.72550000000E-02  2.46530000000E-01

  68  68   1  272 HF   -1.83728000000E-01  2.84920000000E-02 -5.88170000000E-02

  69  69   1  272 HF    5.69540000000E-02  4.45442000000E-01 -4.23327000000E-01

  70  70   1  272 HF   -4.02194000000E-01 -1.92519000000E-01  1.37239000000E-01

  71  71   1  272 HF    6.98100000000E-02  4.68501000000E-01 -8.06530000000E-02

  72  72   1  272 HF   -4.02058000000E-01  1.48666000000E-01 -3.05655000000E-01

  73  73   1  272 HF    7.41120000000E-02 -9.93610000000E-02 -1.92484000000E-01

  74  74   1  272 HF   -4.56467000000E-01 -2.29624000000E-01  4.94530000000E-01

  75  75   1  272 HF    1.14735000000E-01 -2.40540000000E-01  4.70921000000E-01

  76  76   1  272 HF   -2.82406000000E-01  3.54812000000E-01 -1.01986000000E-01

  77  77   1  272 HF    3.42624000000E-01 -3.41339000000E-01  2.05920000000E-02

  78  78   1  272 HF   -1.49162000000E-01 -3.70115000000E-01  3.60180000000E-01

  79  79   1  272 HF    1.85734000000E-01  4.41296000000E-01  2.81467000000E-01

  80  80   1  272 HF    2.84920000000E-01 -3.07164000000E-01 -2.72005000000E-01

  81  81   1  272 HF   -4.35919000000E-01 -4.48359000000E-01 -2.65226000000E-01

  82  82   1  272 HF   -4.40047000000E-01 -1.44547000000E-01 -1.62016000000E-01

  83  83   1  272 HF   -1.60653000000E-01  3.30568000000E-01  1.88525000000E-01

  84  84   1  272 HF   -1.90565000000E-01 -4.53810000000E-02 -4.27467000000E-01

  85  85   1  272 HF    3.15216000000E-01 -1.08983000000E-01  2.94119000000E-01

  86  86   1  272 HF    4.16661000000E-01  3.97377000000E-01 -4.86980000000E-01

  87  87   1  272 HF    2.98590000000E-02  1.88322000000E-01 -2.28380000000E-01

  88  88   1  272 HF   -2.13789000000E-01  3.24133000000E-01 -4.94665000000E-01

  89  89   1  272 HF    8.64140000000E-02  1.43773000000E-01  4.03095000000E-01

  90  90   1  272 HF   -1.48208000000E-01 -3.38907000000E-01 -3.03547000000E-01

  91  91   1  272 HF   -1.72289000000E-01 -3.60338000000E-01 -7.73000000000E-04

  92  92   1  272 HF    6.56450000000E-02 -1.97431000000E-01  1.29240000000E-01

  93  93   1  272 HF   -4.48224000000E-01  9.80990000000E-02  3.49815000000E-01

  94  94   1  272 HF    3.09320000000E-01  2.27490000000E-02 -3.62255000000E-01

  95  95   1  272 HF    1.50144000000E-01  1.49541000000E-01  8.89660000000E-02

  96  96   1  272 HF    4.90235000000E-01  1.12984000000E-01  4.11300000000E-02

 NUMBER OF SYMMETRY OPERATORS         :    1
 *******************************************************************************
 * GEOMETRY EDITING - INPUT COORDINATES ARE GIVEN IN ANGSTROM         
 *******************************************************************************
 INFORMATION **** NEIGHBOR **** neighbors in geometry analysis          15

 GCALCO - MAX INDICES DIRECT LATTICE VECTOR    14    15    15
 NO.OF VECTORS CREATED 6999 STARS 1050 RMAX   227.15178 BOHR

 GEOMETRY FOR WAVE FUNCTION - DIMENSIONALITY OF THE SYSTEM    3
 (NON PERIODIC DIRECTION: LATTICE PARAMETER FORMALLY SET TO 500)
 *******************************************************************************
 LATTICE PARAMETERS (ANGSTROMS AND DEGREES) - BOHR = 0.5291772083 ANGSTROM
 PRIMITIVE CELL - CENTRING CODE 1/0 VOLUME=  1038.200784 - DENSITY 10.847 g/cm^3
         A              B              C           ALPHA      BETA       GAMMA 
    10.23220000     9.97141000    10.17550000    90.000000  90.000000  90.000000
 *******************************************************************************
 ATOMS IN THE ASYMMETRIC UNIT   96 - ATOMS IN THE UNIT CELL:   96
     ATOM              X/A                 Y/B                 Z/C    
 *******************************************************************************
   1 T   8 O    -4.607940000000E-01 -4.311110000000E-01 -4.635160000000E-01
   2 T   8 O    -1.578060000000E-01  2.045700000000E-01 -1.442470000000E-01
   3 T   8 O    -2.464640000000E-01  1.974410000000E-01  3.310200000000E-01
   4 T   8 O    -4.127350000000E-01  2.005840000000E-01 -1.123330000000E-01
   5 T   8 O     4.595000000000E-01  1.675500000000E-02 -2.266820000000E-01
   6 T   8 O     2.206170000000E-01  3.863380000000E-01  4.729380000000E-01
   7 T   8 O     4.189000000000E-01 -1.832350000000E-01 -3.580610000000E-01
   8 T   8 O    -3.259390000000E-01 -2.526360000000E-01 -3.792500000000E-02
   9 T   8 O     1.964390000000E-01  6.054300000000E-02 -2.039740000000E-01
  10 T   8 O     3.784560000000E-01  4.864990000000E-01 -3.148310000000E-01
  11 T   8 O     2.518660000000E-01 -4.620840000000E-01 -1.138910000000E-01
  12 T   8 O     7.255000000000E-02  2.771220000000E-01 -3.394000000000E-02
  13 T   8 O    -6.796000000000E-02  3.208270000000E-01 -3.367220000000E-01
  14 T   8 O    -2.964000000000E-02  3.023050000000E-01  4.360420000000E-01
  15 T   8 O     1.581560000000E-01  3.501410000000E-01 -2.424050000000E-01
  16 T   8 O    -4.468970000000E-01  2.614400000000E-01  4.724040000000E-01
  17 T   8 O    -4.591700000000E-02  1.386900000000E-02 -3.011990000000E-01
  18 T   8 O    -8.160600000000E-02  1.659500000000E-02  4.252730000000E-01
  19 T   8 O     2.958460000000E-01 -2.567000000000E-01  4.256170000000E-01
  20 T   8 O    -3.395230000000E-01 -2.648810000000E-01 -3.068500000000E-01
  21 T   8 O    -1.209030000000E-01  4.412580000000E-01 -8.584000000000E-03
  22 T   8 O    -3.864080000000E-01 -2.714800000000E-02 -4.712810000000E-01
  23 T   8 O    -2.103160000000E-01  1.517860000000E-01  9.229400000000E-02
  24 T   8 O    -2.895080000000E-01 -1.875000000000E-02 -2.288110000000E-01
  25 T   8 O     3.270460000000E-01  2.016700000000E-01 -1.579500000000E-02
  26 T   8 O     1.556880000000E-01  1.416740000000E-01 -4.219080000000E-01
  27 T   8 O    -8.038000000000E-03 -2.303950000000E-01  2.993920000000E-01
  28 T   8 O    -2.589700000000E-01 -4.551950000000E-01 -1.708580000000E-01
  29 T   8 O    -4.937640000000E-01 -3.809280000000E-01  1.174070000000E-01
  30 T   8 O    -9.390400000000E-02 -2.148970000000E-01 -1.491120000000E-01
  31 T   8 O     2.360360000000E-01 -2.869210000000E-01  1.757950000000E-01
  32 T   8 O     1.889160000000E-01 -4.111400000000E-02  1.338520000000E-01
  33 T   8 O     4.366050000000E-01  1.633200000000E-02  2.029690000000E-01
  34 T   8 O     1.545630000000E-01 -5.168900000000E-02  3.884690000000E-01
  35 T   8 O    -1.121810000000E-01 -9.957500000000E-02  9.837600000000E-02
  36 T   8 O    -3.252700000000E-01  3.976810000000E-01  8.649300000000E-02
  37 T   8 O     4.011440000000E-01  2.298910000000E-01 -3.310790000000E-01
  38 T   8 O    -3.099000000000E-03  1.463100000000E-01  2.121210000000E-01
  39 T   8 O     4.390510000000E-01 -1.617730000000E-01  1.929700000000E-02
  40 T   8 O    -3.504550000000E-01  3.561190000000E-01 -3.081060000000E-01
  41 T   8 O    -4.965920000000E-01  4.345050000000E-01 -1.043720000000E-01
  42 T   8 O     4.932000000000E-02 -4.326370000000E-01  4.049860000000E-01
  43 T   8 O     4.963600000000E-01 -2.095830000000E-01  3.107030000000E-01
  44 T   8 O    -3.720120000000E-01 -2.720400000000E-02  4.070000000000E-03
  45 T   8 O     2.078820000000E-01 -2.211250000000E-01 -1.092940000000E-01
  46 T   8 O     2.073860000000E-01  2.376670000000E-01  2.619630000000E-01
  47 T   8 O    -1.503050000000E-01 -4.729590000000E-01 -4.526470000000E-01
  48 T   8 O     2.988270000000E-01  4.572680000000E-01  1.119990000000E-01
  49 T   8 O    -2.315150000000E-01 -3.290750000000E-01  1.808370000000E-01
  50 T   8 O    -2.372470000000E-01  1.494010000000E-01 -4.095040000000E-01
  51 T   8 O     3.884450000000E-01  2.825400000000E-02  4.438000000000E-01
  52 T   8 O     4.070600000000E-01  4.583030000000E-01  3.313180000000E-01
  53 T   8 O     2.390400000000E-02 -3.593210000000E-01  2.739600000000E-02
  54 T   8 O    -5.253000000000E-03 -4.514160000000E-01 -2.368430000000E-01
  55 T   8 O    -2.309980000000E-01  4.480750000000E-01  3.314790000000E-01
  56 T   8 O    -3.335030000000E-01 -4.109000000000E-02  2.593510000000E-01
  57 T   8 O     1.648470000000E-01 -3.871220000000E-01 -3.938520000000E-01
  58 T   8 O     1.837140000000E-01 -1.418680000000E-01 -3.529020000000E-01
  59 T   8 O    -2.633240000000E-01 -2.378900000000E-01  4.442280000000E-01
  60 T   8 O     1.731300000000E-02  3.601700000000E-02 -5.655400000000E-02
  61 T   8 O    -5.963500000000E-02 -2.144290000000E-01 -4.214750000000E-01
  62 T   8 O    -4.780020000000E-01  2.322550000000E-01  1.892980000000E-01
  63 T   8 O     4.532750000000E-01 -3.199970000000E-01 -1.623190000000E-01
  64 T   8 O     1.576100000000E-02  4.219490000000E-01  1.983430000000E-01
  65 T 272 HF    3.453330000000E-01  3.376310000000E-01 -1.747190000000E-01
  66 T 272 HF    4.852680000000E-01  4.301040000000E-01  1.618640000000E-01
  67 T 272 HF   -1.572700000000E-01  2.725500000000E-02  2.465300000000E-01
  68 T 272 HF   -1.837280000000E-01  2.849200000000E-02 -5.881700000000E-02
  69 T 272 HF    5.695400000000E-02  4.454420000000E-01 -4.233270000000E-01
  70 T 272 HF   -4.021940000000E-01 -1.925190000000E-01  1.372390000000E-01
  71 T 272 HF    6.981000000000E-02  4.685010000000E-01 -8.065300000000E-02
  72 T 272 HF   -4.020580000000E-01  1.486660000000E-01 -3.056550000000E-01
  73 T 272 HF    7.411200000000E-02 -9.936100000000E-02 -1.924840000000E-01
  74 T 272 HF   -4.564670000000E-01 -2.296240000000E-01  4.945300000000E-01
  75 T 272 HF    1.147350000000E-01 -2.405400000000E-01  4.709210000000E-01
  76 T 272 HF   -2.824060000000E-01  3.548120000000E-01 -1.019860000000E-01
  77 T 272 HF    3.426240000000E-01 -3.413390000000E-01  2.059200000000E-02
  78 T 272 HF   -1.491620000000E-01 -3.701150000000E-01  3.601800000000E-01
  79 T 272 HF    1.857340000000E-01  4.412960000000E-01  2.814670000000E-01
  80 T 272 HF    2.849200000000E-01 -3.071640000000E-01 -2.720050000000E-01
  81 T 272 HF   -4.359190000000E-01 -4.483590000000E-01 -2.652260000000E-01
  82 T 272 HF   -4.400470000000E-01 -1.445470000000E-01 -1.620160000000E-01
  83 T 272 HF   -1.606530000000E-01  3.305680000000E-01  1.885250000000E-01
  84 T 272 HF   -1.905650000000E-01 -4.538100000000E-02 -4.274670000000E-01
  85 T 272 HF    3.152160000000E-01 -1.089830000000E-01  2.941190000000E-01
  86 T 272 HF    4.166610000000E-01  3.973770000000E-01 -4.869800000000E-01
  87 T 272 HF    2.985900000000E-02  1.883220000000E-01 -2.283800000000E-01
  88 T 272 HF   -2.137890000000E-01  3.241330000000E-01 -4.946650000000E-01
  89 T 272 HF    8.641400000000E-02  1.437730000000E-01  4.030950000000E-01
  90 T 272 HF   -1.482080000000E-01 -3.389070000000E-01 -3.035470000000E-01
  91 T 272 HF   -1.722890000000E-01 -3.603380000000E-01 -7.730000000000E-04
  92 T 272 HF    6.564500000000E-02 -1.974310000000E-01  1.292400000000E-01
  93 T 272 HF   -4.482240000000E-01  9.809900000000E-02  3.498150000000E-01
  94 T 272 HF    3.093200000000E-01  2.274900000000E-02 -3.622550000000E-01
  95 T 272 HF    1.501440000000E-01  1.495410000000E-01  8.896600000000E-02
  96 T 272 HF    4.902350000000E-01  1.129840000000E-01  4.113000000000E-02

 T = ATOM BELONGING TO THE ASYMMETRIC UNIT

 ****   1 SYMMOPS - TRANSLATORS IN FRACTIONAL UNITS
  V INV                   ROTATION MATRICES                       TRANSLATOR
  1  1  1.00  0.00  0.00  0.00  1.00  0.00  0.00  0.00  1.00    0.00  0.00  0.00

 DIRECT LATTICE VECTORS CARTESIAN COMPONENTS (ANGSTROM)
          X                    Y                    Z
   0.102322000000E+02   0.626541548912E-15   0.000000000000E+00
   0.000000000000E+00   0.997141000000E+01   0.000000000000E+00
   0.623069675236E-15   0.623069675236E-15   0.101755000000E+02


 CARTESIAN COORDINATES - PRIMITIVE CELL
 *******************************************************************************
 *      ATOM          X(ANGSTROM)         Y(ANGSTROM)         Z(ANGSTROM)
 *******************************************************************************
   1     8 O    -4.714936366800E+00 -4.298784536510E+00 -4.716507058000E+00
   2     8 O    -1.614702553200E+00  2.039851343700E+00 -1.467785348500E+00
   3     8 O    -2.521868940800E+00  1.968765161810E+00  3.368294010000E+00
   4     8 O    -4.223187067000E+00  2.000105303440E+00 -1.143044441500E+00
   5     8 O     4.701695900000E+00  1.670709745500E-01 -2.306602691000E+00
   6     8 O     2.257397267400E+00  3.852334596580E+00  4.812380619000E+00
   7     8 O     4.286268580000E+00 -1.827111311350E+00 -3.643449705500E+00
   8     8 O    -3.335073035800E+00 -2.519137136760E+00 -3.859058375000E-01
   9     8 O     2.010003135800E+00  6.036990756300E-01 -2.075537437000E+00
  10     8 O     3.872437483200E+00  4.851080993590E+00 -3.203562840500E+00
  11     8 O     2.577143285200E+00 -4.607629018440E+00 -1.158897870500E+00
  12     8 O     7.423461100000E-01  2.763297082020E+00 -3.453564700000E-01
  13     8 O    -6.953803120000E-01  3.199097556070E+00 -3.426314711000E+00
  14     8 O    -3.032824080000E-01  3.014407100050E+00  4.436945371000E+00
  15     8 O     1.618283823200E+00  3.491399468810E+00 -2.466592077500E+00
  16     8 O    -4.572739483400E+00  2.606925430400E+00  4.806946902000E+00
  17     8 O    -4.698319274000E-01  1.382934852900E-01 -3.064850424500E+00
  18     8 O    -8.350089132000E-01  1.654755489500E-01  4.327365411500E+00
  19     8 O     3.027155441200E+00 -2.559660947000E+00  4.330865783500E+00
  20     8 O    -3.474067240600E+00 -2.641237052210E+00 -3.122352175000E+00
  21     8 O    -1.237103676600E+00  4.399964433780E+00 -8.734649200000E-02
  22     8 O    -3.953803937600E+00 -2.707038386800E-01 -4.795519815500E+00
  23     8 O    -2.151995375200E+00  1.513520438260E+00  9.391375970000E-01
  24     8 O    -2.962303757600E+00 -1.869639375000E-01 -2.328266330500E+00
  25     8 O     3.346400081200E+00  2.010934254700E+00 -1.607220225000E-01
  26     8 O     1.593030753600E+00  1.412689540340E+00 -4.293124854000E+00
  27     8 O    -8.224642360000E-02 -2.297363006950E+00  3.046463296000E+00
  28     8 O    -2.649832834000E+00 -4.538935974950E+00 -1.738565579000E+00
  29     8 O    -5.052292000800E+00 -3.798389268480E+00  1.194674928500E+00
  30     8 O    -9.608445088000E-01 -2.142826094770E+00 -1.517289156000E+00
  31     8 O     2.415167559200E+00 -2.861006928610E+00  1.788802022500E+00
  32     8 O     1.933026295200E+00 -4.099645507400E-01  1.362011026000E+00
  33     8 O     4.467429681000E+00  1.628530681200E-01  2.065311059500E+00
  34     8 O     1.581519528600E+00 -5.154122114900E-01  3.952866309500E+00
  35     8 O    -1.147858428200E+00 -9.929031507500E-01  1.001024988000E+00
  36     8 O    -3.328227694000E+00  3.965440300210E+00  8.801095215000E-01
  37     8 O     4.104585636800E+00  2.292337416310E+00 -3.368894364500E+00
  38     8 O    -3.170958780000E-02  1.458916997100E+00  2.158437235500E+00
  39     8 O     4.492457642200E+00 -1.613104909930E+00  1.963566235000E-01
  40     8 O    -3.585925651000E+00  3.551008557790E+00 -3.135132603000E+00
  41     8 O    -5.081228662400E+00  4.332627502050E+00 -1.062037286000E+00
  42     8 O     5.046521040000E-01 -4.314000908170E+00  4.120935043000E+00
  43     8 O     5.078854792000E+00 -2.089838022030E+00  3.161558376500E+00
  44     8 O    -3.806501186400E+00 -2.712622376400E-01  4.141428500000E-02
  45     8 O     2.127090200400E+00 -2.204928036250E+00 -1.112121097000E+00
  46     8 O     2.122015029200E+00  2.369875100470E+00  2.665604506500E+00
  47     8 O    -1.537950821000E+00 -4.716068102190E+00 -4.605909548500E+00
  48     8 O     3.057657629400E+00  4.559606707880E+00  1.139645824500E+00
  49     8 O    -2.368907783000E+00 -3.281341745750E+00  1.840106893500E+00
  50     8 O    -2.427558753400E+00  1.489738625410E+00 -4.166907952000E+00
  51     8 O     3.974646929000E+00  2.817322181400E-01  4.515886900000E+00
  52     8 O     4.165119332000E+00  4.569927117230E+00  3.371326309000E+00
  53     8 O     2.445905088000E-01 -3.582937012610E+00  2.787679980000E-01
  54     8 O    -5.374974660000E-02 -4.501254016560E+00 -2.409995946500E+00
  55     8 O    -2.363617735600E+00  4.467939535750E+00  3.372964564500E+00
  56     8 O    -3.412469396600E+00 -4.097252369000E-01  2.639026100500E+00
  57     8 O     1.686747473400E+00 -3.860152182020E+00 -4.007641026000E+00
  58     8 O     1.879798390800E+00 -1.414623993880E+00 -3.590954301000E+00
  59     8 O    -2.694383832800E+00 -2.372098724900E+00  4.520242014000E+00
  60     8 O     1.771500786000E-01  3.591402739700E-01 -5.754652270000E-01
  61     8 O    -6.101972470000E-01 -2.138159474890E+00 -4.288718862500E+00
  62     8 O    -4.891012064400E+00  2.315909829550E+00  1.926201799000E+00
  63     8 O     4.638000455000E+00 -3.190821285770E+00 -1.651676984500E+00
  64     8 O     1.612697042000E-01  4.207426478090E+00  2.018239196500E+00
  65   272 HF    3.533516322600E+00  3.366657129710E+00 -1.777853184500E+00
  66   272 HF    4.965359229600E+00  4.288743326640E+00  1.647047132000E+00
  67   272 HF   -1.609218094000E+00  2.717707795500E-01  2.508566015000E+00
  68   272 HF   -1.879941641600E+00  2.841054137200E-01 -5.984923835000E-01
  69   272 HF    5.827647188000E-01  4.441684813220E+00 -4.307563888500E+00
  70   272 HF   -4.115329446800E+00 -1.919685881790E+00  1.396475444500E+00
  71   272 HF    7.143098820000E-01  4.671615556410E+00 -8.206846015000E-01
  72   272 HF   -4.113937867600E+00  1.482409639060E+00 -3.110192452500E+00
  73   272 HF    7.583288064000E-01 -9.907692690100E-01 -1.958620942000E+00
  74   272 HF   -4.670661637400E+00 -2.289675049840E+00  5.032090015000E+00
  75   272 HF    1.173991467000E+00 -2.398522961400E+00  4.791856635500E+00
  76   272 HF   -2.889634673200E+00  3.537975924920E+00 -1.037758543000E+00
  77   272 HF    3.505797292800E+00 -3.403631117990E+00  2.095338960000E-01
  78   272 HF   -1.526255416400E+00 -3.690568412150E+00  3.665011590000E+00
  79   272 HF    1.900467434800E+00  4.400343347360E+00  2.864067458500E+00
  80   272 HF    2.915358424000E+00 -3.062858181240E+00 -2.767786877500E+00
  81   272 HF   -4.460410391800E+00 -4.470771416190E+00 -2.698807163000E+00
  82   272 HF   -4.502648913400E+00 -1.441337401270E+00 -1.648593808000E+00
  83   272 HF   -1.643833626600E+00  3.296229060880E+00  1.918336137500E+00
  84   272 HF   -1.949899193000E+00 -4.525125572100E-01 -4.349690458500E+00
  85   272 HF    3.225353155200E+00 -1.086714176030E+00  2.992807884500E+00
  86   272 HF    4.263358684200E+00  3.962408991570E+00 -4.955264990000E+00
  87   272 HF    3.055232598000E-01  1.877835874020E+00 -2.323880690000E+00
  88   272 HF   -2.187531805800E+00  3.232063037530E+00 -5.033463707500E+00
  89   272 HF    8.842053308000E-01  1.433619529930E+00  4.101693172500E+00
  90   272 HF   -1.516493897600E+00 -3.379380648870E+00 -3.088742498500E+00
  91   272 HF   -1.762895505800E+00 -3.593077936580E+00 -7.865661500000E-03
  92   272 HF    6.716927690000E-01 -1.968665447710E+00  1.315081620000E+00
  93   272 HF   -4.586317612800E+00  9.781853495900E-01  3.559542532500E+00
  94   272 HF    3.165024104000E+00  2.268396060900E-01 -3.686125752500E+00
  95   272 HF    1.536303436800E+00  1.491134622810E+00  9.052735330000E-01
  96   272 HF    5.016182567000E+00  1.126609787440E+00  4.185183150000E-01

 *******************************************************************************
 *** PSEUDOPOTENTIAL INFORMATION ***
 *******************************************************************************

 ATOMIC NUMBER  72, NUCLEAR CHARGE 12.000, HAY-WADT SMALL CORE  PSEUDOPOTENTIAL
   TYPE       EXPONENT      COEFF.    N      EXPONENT      COEFF.    N
  W0 TMS   685.5502931  -60.0000000  -1   151.8080485 -688.4980664   0
            38.0522099 -199.7748820   0    10.2057544  -77.2365121   0
             3.4376287  -14.6532596   0     0.8997539   -0.6762204   0
  P0 TMS   380.1096725    3.0000000  -2   724.6234505   31.3395532  -1
           281.4764603 1251.6866138   0    89.3590988  700.8900106   0
            22.9765773  266.0445845   0     3.6700035  465.0196155   0
             3.4703000 -369.5404568   0
  P1 TMS   228.3135771    2.0000000  -2    64.0878447   60.2776972  -1
            20.5139289  192.2174983   0     3.1643736  339.6460089   0
             2.9880924 -266.1066543   0
  P2 TMS   143.7102399    3.0000000  -2    63.1859170   54.6576760  -1
            32.0227449  217.5811427   0    10.7674922  125.1363084   0
             3.1003260   37.6203195   0
  P3 TMS    85.0395853    4.0000000  -2    41.8198820   49.6358393  -1
            19.6524967  178.4657222   0     6.0777120   82.0077173   0
             1.4776693    6.3063943   0

 *******************************************************************************
 LOCAL ATOMIC FUNCTIONS BASIS SET
 *******************************************************************************
   ATOM  X(AU)  Y(AU)  Z(AU)    NO. TYPE  EXPONENT  S COEF   P COEF   D/F/G COEF
 *******************************************************************************
   1 O  -8.910 -8.124 -8.913
                                  1 S  
                                         2.703E+04 2.173E-04 0.000E+00 0.000E+00
                                         4.052E+03 1.684E-03 0.000E+00 0.000E+00
                                         9.223E+02 8.740E-03 0.000E+00 0.000E+00
                                         2.612E+02 3.524E-02 0.000E+00 0.000E+00
                                         8.535E+01 1.115E-01 0.000E+00 0.000E+00
                                         3.104E+01 2.559E-01 0.000E+00 0.000E+00
                                  2 S  
                                         1.226E+01 3.977E-01 0.000E+00 0.000E+00
                                         4.999E+00 2.463E-01 0.000E+00 0.000E+00
                                  3 S  
                                         1.099E+00 1.000E+00 0.000E+00 0.000E+00
                                  4 S  
                                         3.566E-01 1.000E+00 0.000E+00 0.000E+00
                             5-   7 P  
                                         6.327E+01 0.000E+00 6.069E-03 0.000E+00
                                         1.463E+01 0.000E+00 4.191E-02 0.000E+00
                                         4.450E+00 0.000E+00 1.615E-01 0.000E+00
                                         1.528E+00 0.000E+00 3.571E-01 0.000E+00
                             8-  10 P  
                                         5.490E-01 0.000E+00 1.000E+00 0.000E+00
                            11-  13 P  
                                         1.859E-01 0.000E+00 1.000E+00 0.000E+00
                            14-  18 D  
                                         2.535E-01 0.000E+00 0.000E+00 1.000E+00
   2 O  -3.051  3.855 -2.774
   3 O  -4.766  3.720  6.365
   4 O  -7.981  3.780 -2.160
   5 O   8.885  0.316 -4.359
   6 O   4.266  7.280  9.094
   7 O   8.100 -3.453 -6.885
   8 O  -6.302 -4.760 -0.729
   9 O   3.798  1.141 -3.922
  10 O   7.318  9.167 -6.054
  11 O   4.870 -8.707 -2.190
  12 O   1.403  5.222 -0.653
  13 O  -1.314  6.045 -6.475
  14 O  -0.573  5.696  8.385
  15 O   3.058  6.598 -4.661
  16 O  -8.641  4.926  9.084
  17 O  -0.888  0.261 -5.792
  18 O  -1.578  0.313  8.178
  19 O   5.720 -4.837  8.184
  20 O  -6.565 -4.991 -5.900
  21 O  -2.338  8.315 -0.165
  22 O  -7.472 -0.512 -9.062
  23 O  -4.067  2.860  1.775
  24 O  -5.598 -0.353 -4.400
  25 O   6.324  3.800 -0.304
  26 O   3.010  2.670 -8.113
  27 O  -0.155 -4.341  5.757
  28 O  -5.007 -8.577 -3.285
  29 O  -9.547 -7.178  2.258
  30 O  -1.816 -4.049 -2.867
  31 O   4.564 -5.407  3.380
  32 O   3.653 -0.775  2.574
  33 O   8.442  0.308  3.903
  34 O   2.989 -0.974  7.470
  35 O  -2.169 -1.876  1.892
  36 O  -6.289  7.494  1.663
  37 O   7.757  4.332 -6.366
  38 O  -0.060  2.757  4.079
  39 O   8.490 -3.048  0.371
  40 O  -6.776  6.710 -5.925
  41 O  -9.602  8.187 -2.007
  42 O   0.954 -8.152  7.787
  43 O   9.598 -3.949  5.974
  44 O  -7.193 -0.513  0.078
  45 O   4.020 -4.167 -2.102
  46 O   4.010  4.478  5.037
  47 O  -2.906 -8.912 -8.704
  48 O   5.778  8.616  2.154
  49 O  -4.477 -6.201  3.477
  50 O  -4.587  2.815 -7.874
  51 O   7.511  0.532  8.534
  52 O   7.871  8.636  6.371
  53 O   0.462 -6.771  0.527
  54 O  -0.102 -8.506 -4.554
  55 O  -4.467  8.443  6.374
  56 O  -6.449 -0.774  4.987
  57 O   3.187 -7.295 -7.573
  58 O   3.552 -2.673 -6.786
  59 O  -5.092 -4.483  8.542
  60 O   0.335  0.679 -1.087
  61 O  -1.153 -4.041 -8.105
  62 O  -9.243  4.376  3.640
  63 O   8.765 -6.030 -3.121
  64 O   0.305  7.951  3.814
  65 HF  6.677  6.362 -3.360
                               1153 S  
                                         2.400E+01 2.211E-01 0.000E+00 0.000E+00
                                         1.600E+01-3.581E+00 0.000E+00 0.000E+00
                                         1.440E+01 4.254E+00 0.000E+00 0.000E+00
                                         1.030E+01-6.959E-01 0.000E+00 0.000E+00
                               1154 S  
                                         3.793E+00 1.000E+00 0.000E+00 0.000E+00
                               1155 S  
                                         1.019E+00 1.000E+00 0.000E+00 0.000E+00
                               1156 S  
                                         4.599E-01 1.000E+00 0.000E+00 0.000E+00
                               1157 S  
                                         1.928E-01 1.000E+00 0.000E+00 0.000E+00
                          1158-1160 P  
                                         2.235E+01 0.000E+00-7.453E-03 0.000E+00
                                         8.740E+00 0.000E+00 1.564E-01 0.000E+00
                                         4.850E+00 0.000E+00-4.487E-01 0.000E+00
                          1161-1163 P  
                                         1.257E+00 0.000E+00 1.000E+00 0.000E+00
                          1164-1166 P  
                                         6.112E-01 0.000E+00 1.000E+00 0.000E+00
                          1167-1169 P  
                                         2.674E-01 0.000E+00 1.000E+00 0.000E+00
                          1170-1174 D  
                                         8.056E+00 0.000E+00 0.000E+00 9.673E-03
                                         4.342E+00 0.000E+00 0.000E+00-5.457E-02
                                         1.184E+00 0.000E+00 0.000E+00 1.969E-01
                                         5.134E-01 0.000E+00 0.000E+00 4.000E-01
                          1175-1179 D  
                                         2.055E-01 0.000E+00 0.000E+00 1.000E+00
  66 HF  9.383  8.105  3.112
  67 HF -3.041  0.514  4.741
  68 HF -3.553  0.537 -1.131
  69 HF  1.101  8.394 -8.140
  70 HF -7.777 -3.628  2.639
  71 HF  1.350  8.828 -1.551
  72 HF -7.774  2.801 -5.877
  73 HF  1.433 -1.872 -3.701
  74 HF -8.826 -4.327  9.509
  75 HF  2.219 -4.533  9.055
  76 HF -5.461  6.686 -1.961
  77 HF  6.625 -6.432  0.396
  78 HF -2.884 -6.974  6.926
  79 HF  3.591  8.315  5.412
  80 HF  5.509 -5.788 -5.230
  81 HF -8.429 -8.449 -5.100
  82 HF -8.509 -2.724 -3.115
  83 HF -3.106  6.229  3.625
  84 HF -3.685 -0.855 -8.220
  85 HF  6.095 -2.054  5.656
  86 HF  8.057  7.488 -9.364
  87 HF  0.577  3.549 -4.391
  88 HF -4.134  6.108 -9.512
  89 HF  1.671  2.709  7.751
  90 HF -2.866 -6.386 -5.837
  91 HF -3.331 -6.790 -0.015
  92 HF  1.269 -3.720  2.485
  93 HF -8.667  1.849  6.727
  94 HF  5.981  0.429 -6.966
  95 HF  2.903  2.818  1.711
  96 HF  9.479  2.129  0.791
 INFORMATION **** TOLINTEG **** COULOMB AND EXCHANGE SERIES TOLERANCES MODIFIED
 INFORMATION **** READM2 **** FULL DIRECT SCF (MONO AND BIEL INT) SELECTED
 INFORMATION **** SMEAR **** FERMI SMEARING ACTIVE
 FERMI SMEARING - TEMPERATURE SMEARING OF FERMI SURFACE  0.1000E-12
 INFORMATION **** MAXCYCLE **** MAX NUMBER OF SCF CYCLES SET TO         250

 MODIFIED BROYDEN MIXING OF THE FOCK MATRIX
 WO PARAMETER(D.D. Johnson, PRB38, 12807,(1988)             1.0000E-04
 % OF FOCK/KS MATRICES MIXING WHEN BROYDEN METHOD IS ON             95
 NUMBER OF SCF ITERATIONS AFTER WHICH BROYDEN METHOD IS ACTIVE     125
 INFORMATION **** TOLDEE **** SCF TOL ON TOTAL ENERGY SET TO           7
 *******************************************************************************
 N. OF ATOMS PER CELL       96  COULOMB OVERLAP TOL         (T1) 10** -8
 NUMBER OF SHELLS          864  COULOMB PENETRATION TOL     (T2) 10** -8
 NUMBER OF AO             2016  EXCHANGE OVERLAP TOL        (T3) 10** -8
 N. OF ELECTRONS PER CELL  896  EXCHANGE PSEUDO OVP (F(G))  (T4) 10** -8
 CORE ELECTRONS PER CELL   128  EXCHANGE PSEUDO OVP (P(G))  (T5) 10**-16
 N. OF SYMMETRY OPERATORS    1  POLE ORDER IN MONO ZONE                4
 *******************************************************************************
 TYPE OF CALCULATION :  UNRESTRICTED OPEN SHELL
 KOHN-SHAM HAMILTONIAN

 (EXCHANGE)[CORRELATION] FUNCTIONAL:(BECKE)[LEE-YANG-PARR]

 NON-LOCAL WEIGHTING FACTOR (EXCHANGE) =           0.9000
 NON-LOCAL WEIGHTING FACTOR [CORRELATION] =        0.8100

 HYBRID EXCHANGE - PERCENTAGE OF FOCK EXCHANGE    20.0000

 SPIN POLARIZED DFT SELECTED
 CORE  PSEUDO POTENTIAL         TOL. ON PSEUDO              (TP) 10**- 6

 CAPPA:IS1  2;IS2  2;IS3  2; K PTS MONK NET    8; SYMMOPS: K SPACE  2;G SPACE  1

 *******************************************************************************
 MAX NUMBER OF SCF CYCLES     250  CONVERGENCE ON DELTAP        10**-17
 WEIGHT OF F(I) IN F(I+1)      95% CONVERGENCE ON ENERGY        10**- 7
 SHRINK. FACT.(MONKH.)    2  2  2  NUMBER OF K POINTS IN THE IBZ      8
 SHRINKING FACTOR(GILAT NET)    2  NUMBER OF K POINTS(GILAT NET)      8
 *******************************************************************************
 *** K POINTS COORDINATES (OBLIQUE COORDINATES IN UNITS OF IS =  2)
   1-R(  0  0  0)   2-R(  1  0  0)   3-R(  0  1  0)   4-R(  1  1  0)
   5-R(  0  0  1)   6-R(  1  0  1)   7-R(  0  1  1)   8-R(  1  1  1)

 DIRECT LATTICE VECTORS COMPON. (A.U.)     RECIP. LATTICE VECTORS COMPON. (A.U.) 
        X            Y            Z              X            Y            Z
   19.3360557    0.0000000    0.0000000      0.3249466    0.0000000    0.0000000
    0.0000000   18.8432341    0.0000000      0.0000000    0.3334452    0.0000000
    0.0000000    0.0000000   19.2289083      0.0000000    0.0000000    0.3267573

 DISK SPACE FOR EIGENVECTORS (FTN 10)   32514048 REALS

 SYMMETRY ADAPTION OF THE BLOCH FUNCTIONS DISABLED

 DIMENSIONS  P(G)= 6527438 F(G)= 1141532 P(G),F(G) (IRR) 3269591
 MAX G-VECTOR INDEX FOR 1- AND 2-ELECTRON INTEGRALS  27

 TTTTTTTTTTTTTTTTTTTTTTTTTTTTTT INPUT       TELAPSE        4.04 TCPU        2.87

 NEIGHBORS OF THE NON-EQUIVALENT ATOMS

 N = NUMBER OF NEIGHBORS AT DISTANCE R
    ATOM  N     R/ANG      R/AU   NEIGHBORS (ATOM LABELS AND CELL INDICES)
   1 O    1     2.0409     3.8568  81 HF   0 0 0
   1 O    1     2.0544     3.8823  74 HF   0 0-1
   1 O    1     2.1340     4.0327  86 HF  -1-1 0
   1 O    1     2.3810     4.4995  10 O   -1-1 0
   1 O    1     2.6131     4.9381  20 O    0 0 0
   1 O    1     2.7208     5.1415  52 O   -1-1-1
   1 O    1     2.8769     5.4366  40 O    0-1 0
   1 O    1     2.9455     5.5662  59 O    0 0-1
   1 O    1     2.9624     5.5982   7 O   -1 0 0
   1 O    1     3.1375     5.9290  16 O    0-1-1
   1 O    1     3.2062     6.0588  47 O    0 0 0
   1 O    1     3.2171     6.0795  43 O   -1 0-1
   1 O    1     3.2400     6.1228  19 O   -1 0-1
   1 O    1     3.3662     6.3612  55 O    0-1-1
   1 O    1     3.3755     6.3787  63 O   -1 0 0

   2 O    1     1.9770     3.7361  68 HF   0 0 0
   2 O    1     2.0136     3.8052  76 HF   0 0 0
   2 O    1     2.1087     3.9848  87 HF   0 0 0
   2 O    1     2.4546     4.6384  13 O    0 0 0
   2 O    1     2.5217     4.7653  23 O    0 0 0
   2 O    1     2.6138     4.9393  60 O    0 0 0
   2 O    1     2.6289     4.9679   4 O    0 0 0
   2 O    1     2.7090     5.1193  12 O    0 0 0
   2 O    1     2.7345     5.1674  17 O    0 0 0
   2 O    1     2.7414     5.1805  24 O    0 0 0
   2 O    1     2.7601     5.2159  21 O    0 0 0
   2 O    1     2.8720     5.4274  50 O    0 0 0
   2 O    1     2.9915     5.6532  40 O    0 0 0
   2 O    1     3.0421     5.7488  72 HF   0 0 0
   2 O    1     3.4866     6.5888  36 O    0 0 0

   3 O    1     2.1099     3.9872  67 HF   0 0 0
   3 O    1     2.1530     4.0686  83 HF   0 0 0
   3 O    1     2.2031     4.1633  88 HF   0 0 1
   3 O    1     2.2978     4.3422  93 HF   0 0 0
   3 O    1     2.4990     4.7224  23 O    0 0 0
   3 O    1     2.5042     4.7322  55 O    0 0 0
   3 O    1     2.5852     4.8852  16 O    0 0 0
   3 O    1     2.6424     4.9934  56 O    0 0 0
   3 O    1     2.6490     5.0059  18 O    0 0 0
   3 O    1     2.6754     5.0557  14 O    0 0 0
   3 O    1     2.6851     5.0740  50 O    0 0 1
   3 O    1     2.7952     5.2821  62 O    0 0 0
   3 O    1     2.8151     5.3197  38 O    0 0 0
   3 O    1     3.2906     6.2183  36 O    0 0 0
   3 O    1     3.3335     6.2995  22 O    0 0 1

   4 O    1     2.0371     3.8495  72 HF   0 0 0
   4 O    1     2.0383     3.8517  76 HF   0 0 0
   4 O    1     2.0463     3.8669  96 HF  -1 0 0
   4 O    1     2.4867     4.6991  41 O    0 0 0
   4 O    1     2.5344     4.7892   5 O   -1 0 0
   4 O    1     2.5953     4.9044  44 O    0 0 0
   4 O    1     2.6038     4.9205  40 O    0 0 0
   4 O    1     2.6289     4.9679   2 O    0 0 0
   4 O    1     2.7889     5.2702  24 O    0 0 0
   4 O    1     2.8381     5.3632  25 O   -1 0 0
   4 O    1     2.8980     5.4765  65 HF  -1 0 0
   4 O    1     2.9439     5.5632  37 O   -1 0 0
   4 O    1     2.9550     5.5841  68 HF   0 0 0
   4 O    1     2.9592     5.5920  36 O    0 0 0
   4 O    1     2.9769     5.6256  23 O    0 0 0

   5 O    1     2.0190     3.8154  82 HF   1 0 0
   5 O    1     2.0659     3.9040  94 HF   0 0 0
   5 O    1     2.0934     3.9560  72 HF   1 0 0
   5 O    1     2.4365     4.6043   7 O    0 0 0
   5 O    1     2.4498     4.6295  37 O    0 0 0
   5 O    1     2.5344     4.7892   4 O    1 0 0
   5 O    1     2.5926     4.8993  24 O    1 0 0
   5 O    1     2.7366     5.1715   9 O    0 0 0
   5 O    1     2.9062     5.4919  96 HF   0 0 0
   5 O    1     2.9458     5.5667  44 O    1 0 0
   5 O    1     2.9786     5.6288  22 O    1 0 0
   5 O    1     3.0786     5.8177  39 O    0 0 0
   5 O    1     3.1371     5.9283  25 O    0 0 0
   5 O    1     3.4218     6.4662  63 O    0 0 0
   5 O    1     3.4328     6.4871  51 O    0 0-1

   6 O    1     2.0500     3.8739  86 HF   0 0 1
   6 O    1     2.0551     3.8837  79 HF   0 0 0
   6 O    1     2.0654     3.9031  69 HF   0 0 1
   6 O    1     2.4962     4.7171  52 O    0 0 0
   6 O    1     2.6093     4.9309  42 O    0 1 0
   6 O    1     2.6124     4.9367  46 O    0 0 0
   6 O    1     2.6955     5.0937  57 O    0 1 1
   6 O    1     2.7203     5.1407  14 O    0 0 0
   6 O    1     2.7456     5.1884  26 O    0 0 1
   6 O    1     2.8707     5.4248  89 HF   0 0 0
   6 O    1     2.8757     5.4342  10 O    0 0 1
   6 O    1     2.9881     5.6466  15 O    0 0 1
   6 O    1     3.1341     5.9226  37 O    0 0 1
   6 O    1     3.5110     6.6348  64 O    0 0 0
   6 O    1     3.5912     6.7864  13 O    0 0 1

   7 O    1     2.0224     3.8218  74 HF   1 0-1
   7 O    1     2.0429     3.8604  80 HF   0 0 0
   7 O    1     2.3405     4.4228  94 HF   0 0 0
   7 O    1     2.4365     4.6043   5 O    0 0 0
   7 O    1     2.4394     4.6098  63 O    0 0 0
   7 O    1     2.4421     4.6150  58 O    0 0 0
   7 O    1     2.4923     4.7097  82 HF   1 0 0
   7 O    1     2.6395     4.9880  19 O    0 0-1
   7 O    1     2.6541     5.0156  20 O    1 0 0
   7 O    1     2.7782     5.2500  22 O    1 0 0
   7 O    1     2.9342     5.5447  51 O    0 0-1
   7 O    1     2.9624     5.5982   1 O    1 0 0
   7 O    1     3.1762     6.0021  81 HF   1 0 0
   7 O    1     3.3202     6.2742  57 O    0 0 0
   7 O    1     3.3481     6.3271  10 O    0-1 0

   8 O    1     1.9411     3.6682  91 HF   0 0 0
   8 O    1     2.0296     3.8354  82 HF   0 0 0
   8 O    1     2.0359     3.8474  70 HF   0 0 0
   8 O    1     2.3362     4.4148  44 O    0 0 0
   8 O    1     2.5256     4.7728  28 O    0 0 0
   8 O    1     2.5435     4.8066  49 O    0 0 0
   8 O    1     2.6348     4.9791  39 O   -1 0 0
   8 O    1     2.6568     5.0206  30 O    0 0 0
   8 O    1     2.6615     5.0295  29 O    0 0 0
   8 O    1     2.6753     5.0555  63 O   -1 0 0
   8 O    1     2.7427     5.1829  20 O    0 0 0
   8 O    1     3.0061     5.6808  35 O    0 0 0
   8 O    1     3.0579     5.7786  24 O    0 0 0
   8 O    1     3.1656     5.9820  68 HF   0 0 0
   8 O    1     3.2287     6.1014  81 HF   0 0 0

   9 O    1     2.0174     3.8124  94 HF   0 0 0
   9 O    1     2.0304     3.8370  73 HF   0 0 0
   9 O    1     2.1425     4.0488  87 HF   0 0 0
   9 O    1     2.3810     4.4995  60 O    0 0 0
   9 O    1     2.3971     4.5298  26 O    0 0 0
   9 O    1     2.5273     4.7758  58 O    0 0 0
   9 O    1     2.7102     5.1214  17 O    0 0 0
   9 O    1     2.7263     5.1520  25 O    0 0 0
   9 O    1     2.7366     5.1715   5 O    0 0 0
   9 O    1     2.9403     5.5563  15 O    0 0 0
   9 O    1     2.9716     5.6155  45 O    0 0 0
   9 O    1     2.9852     5.6413  37 O    0 0 0
   9 O    1     3.0437     5.7518  12 O    0 0 0
   9 O    1     3.1460     5.9450  95 HF   0 0 0
   9 O    1     3.1692     5.9889  65 HF   0 0 0

  10 O    1     2.0028     3.7847  86 HF   0 0 0
  10 O    1     2.0698     3.9114  81 HF   1 1 0
  10 O    1     2.0859     3.9418  65 HF   0 0 0
  10 O    1     2.3106     4.3665  80 HF   0 1 0
  10 O    1     2.3810     4.4995   1 O    1 1 0
  10 O    1     2.4741     4.6754  11 O    0 1 0
  10 O    1     2.5475     4.8140  41 O    1 0 0
  10 O    1     2.5746     4.8652  37 O    0 0 0
  10 O    1     2.5918     4.8978  63 O    0 1 0
  10 O    1     2.6480     5.0040  57 O    0 1 0
  10 O    1     2.7337     5.1659  15 O    0 0 0
  10 O    1     2.8757     5.4342   6 O    0 0-1
  10 O    1     3.0642     5.7904  40 O    1 0 0
  10 O    1     3.3481     6.3271   7 O    0 1 0
  10 O    1     3.4940     6.6028  69 HF   0 0 0

  11 O    1     2.0158     3.8094  71 HF   0-1 0
  11 O    1     2.0456     3.8657  77 HF   0 0 0
  11 O    1     2.2559     4.2631  80 HF   0 0 0
  11 O    1     2.2992     4.3448  65 HF   0-1 0
  11 O    1     2.4449     4.6203  45 O    0 0 0
  11 O    1     2.4741     4.6754  10 O    0-1 0
  11 O    1     2.4770     4.6808  15 O    0-1 0
  11 O    1     2.4821     4.6905  48 O    0-1 0
  11 O    1     2.5490     4.8169  63 O    0 0 0
  11 O    1     2.7744     5.2428  41 O    1-1 0
  11 O    1     2.9152     5.5089  54 O    0 0 0
  11 O    1     2.9254     5.5281  53 O    0 0 0
  11 O    1     3.0768     5.8144  57 O    0 0 0
  11 O    1     3.2849     6.2076  12 O    0-1 0
  11 O    1     3.4301     6.4820  31 O    0 0 0

  12 O    1     1.9526     3.6900  95 HF   0 0 0
  12 O    1     1.9668     3.7168  71 HF   0 0 0
  12 O    1     2.2112     4.1786  87 HF   0 0 0
  12 O    1     2.4077     4.5499  15 O    0 0 0
  12 O    1     2.4804     4.6873  60 O    0 0 0
  12 O    1     2.5814     4.8781  21 O    0 0 0
  12 O    1     2.7090     5.1193   2 O    0 0 0
  12 O    1     2.7168     5.1341  25 O    0 0 0
  12 O    1     2.8301     5.3482  64 O    0 0 0
  12 O    1     2.9274     5.5319  38 O    0 0 0
  12 O    1     3.0437     5.7518   9 O    0 0 0
  12 O    1     3.1948     6.0373  65 HF   0 0 0
  12 O    1     3.2849     6.2076  11 O    0 1 0
  12 O    1     3.2852     6.2082  48 O    0 0 0
  12 O    1     3.3320     6.2966  83 HF   0 0 0

  13 O    1     1.9885     3.7578  69 HF   0 0 0
  13 O    1     1.9907     3.7619  87 HF   0 0 0
  13 O    1     2.1933     4.1447  88 HF   0 0 0
  13 O    1     2.3525     4.4456  14 O    0 0-1
  13 O    1     2.4546     4.6384   2 O    0 0 0
  13 O    1     2.5159     4.7543  47 O    0 1 0
  13 O    1     2.5218     4.7655  15 O    0 0 0
  13 O    1     2.5438     4.8071  50 O    0 0 0
  13 O    1     2.5695     4.8556  54 O    0 1 0
  13 O    1     2.9264     5.5301  40 O    0 0 0
  13 O    1     3.0298     5.7254  26 O    0 0 0
  13 O    1     3.0903     5.8399  17 O    0 0 0
  13 O    1     3.2611     6.1626  76 HF   0 0 0
  13 O    1     3.3083     6.2518  71 HF   0 0 0
  13 O    1     3.4141     6.4518  28 O    0 1 0

  14 O    1     2.0053     3.7896  89 HF   0 0 0
  14 O    1     2.0236     3.8240  88 HF   0 0 1
  14 O    1     2.2068     4.1702  69 HF   0 0 1
  14 O    1     2.3525     4.4456  13 O    0 0 1
  14 O    1     2.6754     5.0557   3 O    0 0 0
  14 O    1     2.7203     5.1407   6 O    0 0 0
  14 O    1     2.7366     5.1715  64 O    0 0 0
  14 O    1     2.7367     5.1717  55 O    0 0 0
  14 O    1     2.7722     5.2386  38 O    0 0 0
  14 O    1     2.7817     5.2567  42 O    0 1 0
  14 O    1     2.7980     5.2875  47 O    0 1 1
  14 O    1     2.8670     5.4179  83 HF   0 0 0
  14 O    1     2.8724     5.4281  26 O    0 0 1
  14 O    1     2.9002     5.4806  18 O    0 0 0
  14 O    1     3.0416     5.7478  79 HF   0 0 0

  15 O    1     2.0391     3.8534  65 HF   0 0 0
  15 O    1     2.0850     3.9401  87 HF   0 0 0
  15 O    1     2.2179     4.1912  71 HF   0 0 0
  15 O    1     2.3161     4.3769  69 HF   0 0 0
  15 O    1     2.4077     4.5499  12 O    0 0 0
  15 O    1     2.4770     4.6808  11 O    0 1 0
  15 O    1     2.5218     4.7655  13 O    0 0 0
  15 O    1     2.5912     4.8967  54 O    0 1 0
  15 O    1     2.7337     5.1659  10 O    0 0 0
  15 O    1     2.7673     5.2294  26 O    0 0 0
  15 O    1     2.9041     5.4879  37 O    0 0 0
  15 O    1     2.9403     5.5563   9 O    0 0 0
  15 O    1     2.9881     5.6466   6 O    0 0-1
  15 O    1     3.0403     5.7453  57 O    0 1 0
  15 O    1     3.2396     6.1220  25 O    0 0 0

  16 O    1     1.9893     3.7592  86 HF  -1 0 1
  16 O    1     2.0516     3.8769  93 HF   0 0 0
  16 O    1     2.4884     4.7025  88 HF   0 0 1
  16 O    1     2.5525     4.8235  37 O   -1 0 1
  16 O    1     2.5642     4.8457  72 HF   0 0 1
  16 O    1     2.5852     4.8852   3 O    0 0 0
  16 O    1     2.6179     4.9471  40 O    0 0 1
  16 O    1     2.7007     5.1036  50 O    0 0 1
  16 O    1     2.8544     5.3940  52 O   -1 0 0
  16 O    1     2.8861     5.4540  51 O   -1 0 0
  16 O    1     2.9128     5.5045  62 O    0 0 0
  16 O    1     2.9987     5.6667  22 O    0 0 1
  16 O    1     3.1375     5.9290   1 O    0 1 1
  16 O    1     3.2249     6.0942  55 O    0 0 0
  16 O    1     3.5940     6.7917  10 O   -1 0 1

  17 O    1     2.0017     3.7827  73 HF   0 0 0
  17 O    1     2.0436     3.8618  87 HF   0 0 0
  17 O    1     2.0471     3.8684  84 HF   0 0 0
  17 O    1     2.5815     4.8784  60 O    0 0 0
  17 O    1     2.5884     4.8914  61 O    0 0 0
  17 O    1     2.6193     4.9498  24 O    0 0 0
  17 O    1     2.6218     4.9544  50 O    0 0 0
  17 O    1     2.7102     5.1214   9 O    0 0 0
  17 O    1     2.7181     5.1365  26 O    0 0 0
  17 O    1     2.7345     5.1674   2 O    0 0 0
  17 O    1     2.7999     5.2911  30 O    0 0 0
  17 O    1     2.8073     5.3050  18 O    0 0-1
  17 O    1     2.8447     5.3758  68 HF   0 0 0
  17 O    1     2.8652     5.4144  58 O    0 0 0
  17 O    1     3.0903     5.8399  13 O    0 0 0

  18 O    1     1.9673     3.7176  84 HF   0 0 1
  18 O    1     1.9796     3.7409  67 HF   0 0 0
  18 O    1     2.1482     4.0595  89 HF   0 0 0
  18 O    1     2.5384     4.7969  34 O    0 0 0
  18 O    1     2.6490     5.0059   3 O    0 0 0
  18 O    1     2.6500     5.0078  38 O    0 0 0
  18 O    1     2.6677     5.0411  50 O    0 0 1
  18 O    1     2.7909     5.2740  61 O    0 0 1
  18 O    1     2.8073     5.3050  17 O    0 0 1
  18 O    1     2.8763     5.4354  27 O    0 0 0
  18 O    1     2.9002     5.4806  14 O    0 0 0
  18 O    1     3.1344     5.9232  56 O    0 0 0
  18 O    1     3.1415     5.9366  26 O    0 0 1
  18 O    1     3.1518     5.9560  59 O    0 0 0
  18 O    1     3.2903     6.2177  75 HF   0 0 0

  19 O    1     1.9164     3.6215  75 HF   0 0 0
  19 O    1     1.9998     3.7791  85 HF   0 0 0
  19 O    1     2.4078     4.5501  43 O    0 0 0
  19 O    1     2.5321     4.7850  34 O    0 0 0
  19 O    1     2.6196     4.9504  57 O    0 0 1
  19 O    1     2.6320     4.9738  31 O    0 0 0
  19 O    1     2.6395     4.9880   7 O    0 0 1
  19 O    1     2.6434     4.9954  74 HF   1 0 0
  19 O    1     2.7761     5.2460  58 O    0 0 1
  19 O    1     3.0009     5.6709  51 O    0 0 0
  19 O    1     3.0797     5.8199  42 O    0 0 0
  19 O    1     3.1197     5.8954  80 HF   0 0 1
  19 O    1     3.2081     6.0623  52 O    0-1 0
  19 O    1     3.2400     6.1228   1 O    1 0 1
  19 O    1     3.3744     6.3768  27 O    0 0 0

  20 O    1     2.0924     3.9540  90 HF   0 0 0
  20 O    1     2.1212     4.0085  81 HF   0 0 0
  20 O    1     2.1609     4.0836  82 HF   0 0 0
  20 O    1     2.3749     4.4879  74 HF   0 0-1
  20 O    1     2.4891     4.7037  28 O    0 0 0
  20 O    1     2.6131     4.9381   1 O    0 0 0
  20 O    1     2.6298     4.9696  24 O    0 0 0
  20 O    1     2.6382     4.9854  63 O   -1 0 0
  20 O    1     2.6541     5.0156   7 O   -1 0 0
  20 O    1     2.6638     5.0339  59 O    0 0-1
  20 O    1     2.7427     5.1829   8 O    0 0 0
  20 O    1     2.9360     5.5482  84 HF   0 0 0
  20 O    1     2.9409     5.5576  22 O    0 0 0
  20 O    1     3.0234     5.7134  30 O    0 0 0
  20 O    1     3.1329     5.9204  61 O    0 0 0

  21 O    1     2.0486     3.8713  91 HF   0 1 0
  21 O    1     2.0922     3.9536  76 HF   0 0 0
  21 O    1     2.1023     3.9727  71 HF   0 0 0
  21 O    1     2.3252     4.3939  83 HF   0 0 0
  21 O    1     2.3447     4.4308  36 O    0 0 0
  21 O    1     2.4059     4.5465  28 O    0 1 0
  21 O    1     2.5067     4.7370  53 O    0 1 0
  21 O    1     2.5350     4.7904  64 O    0 0 0
  21 O    1     2.5814     4.8781  12 O    0 0 0
  21 O    1     2.7601     5.2159   2 O    0 0 0
  21 O    1     2.8179     5.3250  54 O    0 1 0
  21 O    1     3.1972     6.0419  23 O    0 0 0
  21 O    1     3.2001     6.0473  49 O    0 1 0
  21 O    1     3.5895     6.7831  13 O    0 0 0
  21 O    1     3.6397     6.8780  55 O    0 0 0

  22 O    1     2.0609     3.8946  84 HF   0 0 0
  22 O    1     2.1705     4.1017  74 HF   0 0-1
  22 O    1     2.2965     4.3397  93 HF   0 0-1
  22 O    1     2.4132     4.5604  50 O    0 0 0
  22 O    1     2.4371     4.6054  72 HF   0 0 0
  22 O    1     2.5217     4.7654  51 O   -1 0-1
  22 O    1     2.5964     4.9064  59 O    0 0-1
  22 O    1     2.6603     5.0273  24 O    0 0 0
  22 O    1     2.7782     5.2500   7 O   -1 0 0
  22 O    1     2.7974     5.2862  56 O    0 0-1
  22 O    1     2.9409     5.5576  20 O    0 0 0
  22 O    1     2.9786     5.6288   5 O   -1 0 0
  22 O    1     2.9987     5.6667  16 O    0 0-1
  22 O    1     3.1096     5.8763  43 O   -1 0-1
  22 O    1     3.3204     6.2747  18 O    0 0-1

  23 O    1     1.9874     3.7557  68 HF   0 0 0
  23 O    1     2.0736     3.9185  67 HF   0 0 0
  23 O    1     2.0965     3.9617  83 HF   0 0 0
  23 O    1     2.4465     4.6232  38 O    0 0 0
  23 O    1     2.4990     4.7224   3 O    0 0 0
  23 O    1     2.5217     4.7653   2 O    0 0 0
  23 O    1     2.5940     4.9019  44 O    0 0 0
  23 O    1     2.7008     5.1038  35 O    0 0 0
  23 O    1     2.7201     5.1402  36 O    0 0 0
  23 O    1     2.8596     5.4039  56 O    0 0 0
  23 O    1     2.9241     5.5258  76 HF   0 0 0
  23 O    1     2.9769     5.6256   4 O    0 0 0
  23 O    1     3.0086     5.6854  60 O    0 0 0
  23 O    1     3.0200     5.7070  62 O    0 0 0
  23 O    1     3.1319     5.9185  96 HF  -1 0 0

  24 O    1     2.0942     3.9574  68 HF   0 0 0
  24 O    1     2.0995     3.9676  82 HF   0 0 0
  24 O    1     2.1736     4.1075  72 HF   0 0 0
  24 O    1     2.2763     4.3016  84 HF   0 0 0
  24 O    1     2.5170     4.7564  44 O    0 0 0
  24 O    1     2.5452     4.8097  50 O    0 0 0
  24 O    1     2.5926     4.8993   5 O   -1 0 0
  24 O    1     2.6193     4.9498  17 O    0 0 0
  24 O    1     2.6298     4.9696  20 O    0 0 0
  24 O    1     2.6603     5.0273  22 O    0 0 0
  24 O    1     2.7414     5.1805   2 O    0 0 0
  24 O    1     2.7889     5.2702   4 O    0 0 0
  24 O    1     2.9136     5.5059  30 O    0 0 0
  24 O    1     3.0579     5.7786   8 O    0 0 0
  24 O    1     3.5861     6.7768  90 HF   0 0 0

  25 O    1     1.9763     3.7346  96 HF   0 0 0
  25 O    1     2.1185     4.0034  65 HF   0 0 0
  25 O    1     2.1640     4.0894  95 HF   0 0 0
  25 O    1     2.7168     5.1341  12 O    0 0 0
  25 O    1     2.7263     5.1520   9 O    0 0 0
  25 O    1     2.8381     5.3632   4 O    1 0 0
  25 O    1     2.8758     5.4344  48 O    0 0 0
  25 O    1     2.9030     5.4859  62 O    1 0 0
  25 O    1     3.0756     5.8120  41 O    1 0 0
  25 O    1     3.1010     5.8600  46 O    0 0 0
  25 O    1     3.1028     5.8634  33 O    0 0 0
  25 O    1     3.1371     5.9283   5 O    0 0 0
  25 O    1     3.1902     6.0285  32 O    0 0 0
  25 O    1     3.2396     6.1220  15 O    0 0 0
  25 O    1     3.3085     6.2522  37 O    0 0 0

  26 O    1     1.9167     3.6220  89 HF   0 0-1
  26 O    1     2.0605     3.8939  94 HF   0 0 0
  26 O    1     2.3971     4.5298   9 O    0 0 0
  26 O    1     2.3983     4.5322  87 HF   0 0 0
  26 O    1     2.7181     5.1365  17 O    0 0 0
  26 O    1     2.7278     5.1547  34 O    0 0-1
  26 O    1     2.7456     5.1884   6 O    0 0-1
  26 O    1     2.7673     5.2294  15 O    0 0 0
  26 O    1     2.8171     5.3235  37 O    0 0 0
  26 O    1     2.8724     5.4281  14 O    0 0-1
  26 O    1     2.9273     5.5318  58 O    0 0 0
  26 O    1     2.9696     5.6117  51 O    0 0-1
  26 O    1     3.0298     5.7254  13 O    0 0 0
  26 O    1     3.1415     5.9366  18 O    0 0-1
  26 O    1     3.1931     6.0340  69 HF   0 0 0

  27 O    1     1.9168     3.6222  92 HF   0 0 0
  27 O    1     2.0997     3.9679  78 HF   0 0 0
  27 O    1     2.1529     4.0683  75 HF   0 0 0
  27 O    1     2.3592     4.4582  42 O    0 0 0
  27 O    1     2.6010     4.9151  34 O    0 0 0
  27 O    1     2.6497     5.0072  35 O    0 0 0
  27 O    1     2.7663     5.2275  49 O    0 0 0
  27 O    1     2.8525     5.3904  31 O    0 0 0
  27 O    1     2.8763     5.4354  18 O    0 0 0
  27 O    1     2.8934     5.4676  61 O    0 0 1
  27 O    1     3.0001     5.6695  59 O    0 0 0
  27 O    1     3.0367     5.7385  67 HF   0 0 0
  27 O    1     3.0691     5.7998  53 O    0 0 0
  27 O    1     3.2343     6.1120  32 O    0 0 0
  27 O    1     3.3744     6.3768  19 O    0 0 0

  28 O    1     2.0341     3.8440  76 HF   0-1 0
  28 O    1     2.0506     3.8750  81 HF   0 0 0
  28 O    1     2.1100     3.9873  90 HF   0 0 0
  28 O    1     2.1626     4.0866  91 HF   0 0 0
  28 O    1     2.4059     4.5465  21 O    0-1 0
  28 O    1     2.4891     4.7037  20 O    0 0 0
  28 O    1     2.5232     4.7682  40 O    0-1 0
  28 O    1     2.5256     4.7728   8 O    0 0 0
  28 O    1     2.6818     5.0678  54 O    0 0 0
  28 O    1     2.7530     5.2024  41 O    0-1 0
  28 O    1     2.9399     5.5556  30 O    0 0 0
  28 O    1     3.0773     5.8153  36 O    0-1 0
  28 O    1     3.0805     5.8213  47 O    0 0 0
  28 O    1     3.2395     6.1217  63 O   -1 0 0
  28 O    1     3.4141     6.4518  13 O    0-1 0

  29 O    1     1.9497     3.6843  66 HF  -1-1 0
  29 O    1     1.9822     3.7458  77 HF  -1 0 0
  29 O    1     2.1091     3.9856  70 HF   0 0 0
  29 O    1     2.4989     4.7223  39 O   -1 0 0
  29 O    1     2.6073     4.9271  43 O   -1 0 0
  29 O    1     2.6615     5.0295   8 O    0 0 0
  29 O    1     2.6665     5.0389  48 O   -1-1 0
  29 O    1     2.8079     5.3062  49 O    0 0 0
  29 O    1     2.8186     5.3265  36 O    0-1 0
  29 O    1     2.8875     5.4565  52 O   -1-1 0
  29 O    1     2.9122     5.5032  41 O    0-1 0
  29 O    1     2.9605     5.5945  63 O   -1 0 0
  29 O    1     2.9792     5.6298  31 O   -1 0 0
  29 O    1     3.5083     6.6298  91 HF   0 0 0
  29 O    1     3.6012     6.8053  11 O   -1 0 0

  30 O    1     2.0754     3.9219  90 HF   0 0 0
  30 O    1     2.1160     3.9987  73 HF   0 0 0
  30 O    1     2.2416     4.2361  91 HF   0 0 0
  30 O    1     2.5986     4.9107  53 O    0 0 0
  30 O    1     2.6568     5.0206   8 O    0 0 0
  30 O    1     2.6799     5.0643  54 O    0 0 0
  30 O    1     2.7530     5.2024  68 HF   0 0 0
  30 O    1     2.7747     5.2435  35 O    0 0 0
  30 O    1     2.7935     5.2790  61 O    0 0 0
  30 O    1     2.7999     5.2911  17 O    0 0 0
  30 O    1     2.9055     5.4906  60 O    0 0 0
  30 O    1     2.9136     5.5059  24 O    0 0 0
  30 O    1     2.9399     5.5556  28 O    0 0 0
  30 O    1     3.0234     5.7134  20 O    0 0 0
  30 O    1     3.1150     5.8865  45 O    0 0 0

  31 O    1     1.9945     3.7690  77 HF   0 0 0
  31 O    1     2.0150     3.8079  92 HF   0 0 0
  31 O    1     2.2922     4.3316  85 HF   0 0 0
  31 O    1     2.5342     4.7890  32 O    0 0 0
  31 O    1     2.6320     4.9738  19 O    0 0 0
  31 O    1     2.7094     5.1200  48 O    0-1 0
  31 O    1     2.7409     5.1796  53 O    0 0 0
  31 O    1     2.8525     5.3904  27 O    0 0 0
  31 O    1     2.8997     5.4796  39 O    0 0 0
  31 O    1     2.9607     5.5948  79 HF   0-1 0
  31 O    1     2.9792     5.6298  29 O    1 0 0
  31 O    1     2.9881     5.6467  45 O    0 0 0
  31 O    1     3.0943     5.8473  43 O    0 0 0
  31 O    1     3.2822     6.2024  75 HF   0 0 0
  31 O    1     3.2985     6.2332  34 O    0 0 0

  32 O    1     1.9950     3.7701  95 HF   0 0 0
  32 O    1     2.0057     3.7902  92 HF   0 0 0
  32 O    1     2.1881     4.1348  85 HF   0 0 0
  32 O    1     2.5342     4.7890  31 O    0 0 0
  32 O    1     2.6167     4.9449  34 O    0 0 0
  32 O    1     2.6918     5.0868  33 O    0 0 0
  32 O    1     2.7255     5.1505  60 O    0 0 0
  32 O    1     2.8262     5.3407  38 O    0 0 0
  32 O    1     3.0589     5.7805  39 O    0 0 0
  32 O    1     3.0628     5.7879  45 O    0 0 0
  32 O    1     3.0761     5.8130  46 O    0 0 0
  32 O    1     3.1563     5.9645  35 O    0 0 0
  32 O    1     3.1902     6.0285  25 O    0 0 0
  32 O    1     3.2343     6.1120  27 O    0 0 0
  32 O    1     3.4648     6.5475  89 HF   0 0 0

  33 O    1     1.9854     3.7519  96 HF   0 0 0
  33 O    1     1.9911     3.7626  85 HF   0 0 0
  33 O    1     2.0703     3.9123  93 HF   1 0 0
  33 O    1     2.3278     4.3988  62 O    1 0 0
  33 O    1     2.4880     4.7017  56 O    1 0 0
  33 O    1     2.5025     4.7290  51 O    0 0 0
  33 O    1     2.5783     4.8723  39 O    0 0 0
  33 O    1     2.5788     4.8732  43 O    0 0 0
  33 O    1     2.6918     5.0868  32 O    0 0 0
  33 O    1     2.7395     5.1769  70 HF   1 0 0
  33 O    1     2.8495     5.3847  44 O    1 0 0
  33 O    1     3.1028     5.8634  25 O    0 0 0
  33 O    1     3.2760     6.1908  46 O    0 0 0
  33 O    1     3.4207     6.4643  95 HF   0 0 0
  33 O    1     3.5145     6.6414  34 O    0 0 0

  34 O    1     1.9875     3.7559  85 HF   0 0 0
  34 O    1     2.0754     3.9219  89 HF   0 0 0
  34 O    1     2.1014     3.9712  75 HF   0 0 0
  34 O    1     2.5321     4.7850  19 O    0 0 0
  34 O    1     2.5384     4.7969  18 O    0 0 0
  34 O    1     2.5845     4.8839  51 O    0 0 0
  34 O    1     2.6010     4.9151  27 O    0 0 0
  34 O    1     2.6167     4.9449  32 O    0 0 0
  34 O    1     2.7278     5.1547  26 O    0 0 1
  34 O    1     2.7970     5.2856  58 O    0 0 1
  34 O    1     3.0810     5.8222  94 HF   0 0 1
  34 O    1     3.1178     5.8917  38 O    0 0 0
  34 O    1     3.1461     5.9452  92 HF   0 0 0
  34 O    1     3.2053     6.0572  46 O    0 0 0
  34 O    1     3.2985     6.2332  31 O    0 0 0

  35 O    1     2.0211     3.8194  67 HF   0 0 0
  35 O    1     2.0884     3.9465  92 HF   0 0 0
  35 O    1     2.1737     4.1078  68 HF   0 0 0
  35 O    1     2.4635     4.6554  60 O    0 0 0
  35 O    1     2.6497     5.0072  27 O    0 0 0
  35 O    1     2.7008     5.1038  23 O    0 0 0
  35 O    1     2.7262     5.1517  49 O    0 0 0
  35 O    1     2.7747     5.2435  30 O    0 0 0
  35 O    1     2.8551     5.3954  56 O    0 0 0
  35 O    1     2.8561     5.3972  91 HF   0 0 0
  35 O    1     2.9172     5.5127  44 O    0 0 0
  35 O    1     2.9320     5.5407  38 O    0 0 0
  35 O    1     3.0061     5.6808   8 O    0 0 0
  35 O    1     3.0280     5.7221  53 O    0 0 0
  35 O    1     3.1339     5.9222  70 HF   0 0 0

  36 O    1     2.0133     3.8046  76 HF   0 0 0
  36 O    1     2.0888     3.9472  83 HF   0 0 0
  36 O    1     2.1097     3.9868  66 HF  -1 0 0
  36 O    1     2.3447     4.4308  21 O    0 0 0
  36 O    1     2.5015     4.7272  62 O    0 0 0
  36 O    1     2.6419     4.9925  41 O    0 0 0
  36 O    1     2.7198     5.1397  55 O    0 0 0
  36 O    1     2.7201     5.1402  23 O    0 0 0
  36 O    1     2.8186     5.3265  29 O    0 1 0
  36 O    1     2.9592     5.5920   4 O    0 0 0
  36 O    1     3.0101     5.6883  91 HF   0 1 0
  36 O    1     3.0439     5.7522  49 O    0 1 0
  36 O    1     3.0773     5.8153  28 O    0 1 0
  36 O    1     3.2906     6.2183   3 O    0 0 0
  36 O    1     3.4403     6.5013  96 HF  -1 0 0

  37 O    1     2.0029     3.7850  65 HF   0 0 0
  37 O    1     2.1858     4.1306  72 HF   1 0 0
  37 O    1     2.2912     4.3298  94 HF   0 0 0
  37 O    1     2.3089     4.3631  86 HF   0 0 0
  37 O    1     2.4498     4.6295   5 O    0 0 0
  37 O    1     2.5525     4.8235  16 O    1 0-1
  37 O    1     2.5746     4.8652  10 O    0 0 0
  37 O    1     2.8171     5.3235  26 O    0 0 0
  37 O    1     2.8459     5.3779  40 O    1 0 0
  37 O    1     2.9041     5.4879  15 O    0 0 0
  37 O    1     2.9439     5.5632   4 O    1 0 0
  37 O    1     2.9852     5.6413   9 O    0 0 0
  37 O    1     3.0507     5.7650  51 O    0 0-1
  37 O    1     3.1341     5.9226   6 O    0 0-1
  37 O    1     3.2526     6.1465  41 O    1 0 0

  38 O    1     2.0051     3.7891  67 HF   0 0 0
  38 O    1     2.0075     3.7937  95 HF   0 0 0
  38 O    1     2.1484     4.0600  89 HF   0 0 0
  38 O    1     2.3928     4.5218  46 O    0 0 0
  38 O    1     2.4465     4.6232  23 O    0 0 0
  38 O    1     2.4561     4.6413  83 HF   0 0 0
  38 O    1     2.6500     5.0078  18 O    0 0 0
  38 O    1     2.7588     5.2135  64 O    0 0 0
  38 O    1     2.7722     5.2386  14 O    0 0 0
  38 O    1     2.8151     5.3197   3 O    0 0 0
  38 O    1     2.8262     5.3407  32 O    0 0 0
  38 O    1     2.9274     5.5319  12 O    0 0 0
  38 O    1     2.9320     5.5407  35 O    0 0 0
  38 O    1     2.9542     5.5826  60 O    0 0 0
  38 O    1     3.1178     5.8917  34 O    0 0 0

  39 O    1     2.0428     3.8603  70 HF   1 0 0
  39 O    1     2.0444     3.8634  77 HF   0 0 0
  39 O    1     2.2279     4.2102  82 HF   1 0 0
  39 O    1     2.3584     4.4567  44 O    1 0 0
  39 O    1     2.4343     4.6001  63 O    0 0 0
  39 O    1     2.4989     4.7223  29 O    1 0 0
  39 O    1     2.5783     4.8723  33 O    0 0 0
  39 O    1     2.6348     4.9791   8 O    1 0 0
  39 O    1     2.7672     5.2292  45 O    0 0 0
  39 O    1     2.7982     5.2877  96 HF   0 0 0
  39 O    1     2.8997     5.4796  31 O    0 0 0
  39 O    1     3.0589     5.7805  32 O    0 0 0
  39 O    1     3.0600     5.7825  43 O    0 0 0
  39 O    1     3.0786     5.8177   5 O    0 0 0
  39 O    1     3.1149     5.8864  85 HF   0 0 0

  40 O    1     2.1351     4.0347  72 HF   0 0 0
  40 O    1     2.1809     4.1212  81 HF   0 1 0
  40 O    1     2.2100     4.1762  76 HF   0 0 0
  40 O    1     2.3793     4.4962  88 HF   0 0 0
  40 O    1     2.5232     4.7682  28 O    0 1 0
  40 O    1     2.5798     4.8751  50 O    0 0 0
  40 O    1     2.6038     4.9205   4 O    0 0 0
  40 O    1     2.6179     4.9471  16 O    0 0-1
  40 O    1     2.6729     5.0511  41 O    0 0 0
  40 O    1     2.8459     5.3779  37 O   -1 0 0
  40 O    1     2.8769     5.4366   1 O    0 1 0
  40 O    1     2.9264     5.5301  13 O    0 0 0
  40 O    1     2.9915     5.6532   2 O    0 0 0
  40 O    1     3.0266     5.7195  86 HF  -1 0 0
  40 O    1     3.0434     5.7511  47 O    0 1 0

  41 O    1     2.0154     3.8085  65 HF  -1 0 0
  41 O    1     2.1044     3.9768  81 HF   0 1 0
  41 O    1     2.3313     4.4056  76 HF   0 0 0
  41 O    1     2.4867     4.6991   4 O    0 0 0
  41 O    1     2.5475     4.8140  10 O   -1 0 0
  41 O    1     2.5697     4.8560  63 O   -1 1 0
  41 O    1     2.6419     4.9925  36 O    0 0 0
  41 O    1     2.6729     5.0511  40 O    0 0 0
  41 O    1     2.7158     5.1321  66 HF  -1 0 0
  41 O    1     2.7530     5.2024  28 O    0 1 0
  41 O    1     2.7744     5.2428  11 O   -1 1 0
  41 O    1     2.9122     5.5032  29 O    0 1 0
  41 O    1     3.0465     5.7570  48 O   -1 0 0
  41 O    1     3.0528     5.7689  77 HF  -1 1 0
  41 O    1     3.0756     5.8120  25 O   -1 0 0

  42 O    1     2.1298     4.0248  69 HF   0-1 1
  42 O    1     2.1371     4.0385  75 HF   0 0 0
  42 O    1     2.1728     4.1060  78 HF   0 0 0
  42 O    1     2.2601     4.2710  79 HF   0-1 0
  42 O    1     2.3592     4.4582  27 O    0 0 0
  42 O    1     2.4069     4.5484  57 O    0 0 1
  42 O    1     2.5362     4.7928  47 O    0 0 1
  42 O    1     2.5771     4.8701  64 O    0-1 0
  42 O    1     2.6093     4.9309   6 O    0-1 0
  42 O    1     2.7817     5.2567  14 O    0-1 0
  42 O    1     3.0159     5.6991  61 O    0 0 1
  42 O    1     3.0797     5.8199  19 O    0 0 0
  42 O    1     3.1939     6.0357  55 O    0-1 0
  42 O    1     3.3467     6.3243  31 O    0 0 0
  42 O    1     3.6608     6.9179  92 HF   0 0 0

  43 O    1     1.9421     3.6701  74 HF   1 0 0
  43 O    1     2.0547     3.8829  70 HF   1 0 0
  43 O    1     2.1143     3.9954  85 HF   0 0 0
  43 O    1     2.4078     4.5501  19 O    0 0 0
  43 O    1     2.4752     4.6774  56 O    1 0 0
  43 O    1     2.5788     4.8732  33 O    0 0 0
  43 O    1     2.6073     4.9271  29 O    1 0 0
  43 O    1     2.8235     5.3357  59 O    1 0 0
  43 O    1     2.9458     5.5668  51 O    0 0 0
  43 O    1     3.0600     5.7825  39 O    0 0 0
  43 O    1     3.0943     5.8473  31 O    0 0 0
  43 O    1     3.1096     5.8763  22 O    1 0 1
  43 O    1     3.1453     5.9437  93 HF   1 0 0
  43 O    1     3.2171     6.0795   1 O    1 0 1
  43 O    1     3.3044     6.2444  49 O    1 0 0

  44 O    1     2.0206     3.8185  96 HF  -1 0 0
  44 O    1     2.1046     3.9772  68 HF   0 0 0
  44 O    1     2.1561     4.0745  70 HF   0 0 0
  44 O    1     2.1702     4.1011  82 HF   0 0 0
  44 O    1     2.3362     4.4148   8 O    0 0 0
  44 O    1     2.3584     4.4567  39 O   -1 0 0
  44 O    1     2.5170     4.7564  24 O    0 0 0
  44 O    1     2.5940     4.9019  23 O    0 0 0
  44 O    1     2.5953     4.9044   4 O    0 0 0
  44 O    1     2.6310     4.9718  56 O    0 0 0
  44 O    1     2.8495     5.3847  33 O   -1 0 0
  44 O    1     2.9172     5.5127  35 O    0 0 0
  44 O    1     2.9458     5.5667   5 O   -1 0 0
  44 O    1     3.3481     6.3270  67 HF   0 0 0
  44 O    1     3.3797     6.3866  62 O    0 0 0

  45 O    1     2.0160     3.8097  73 HF   0 0 0
  45 O    1     2.0245     3.8258  80 HF   0 0 0
  45 O    1     2.2549     4.2611  77 HF   0 0 0
  45 O    1     2.4449     4.6203  11 O    0 0 0
  45 O    1     2.6135     4.9388  58 O    0 0 0
  45 O    1     2.7161     5.1327  53 O    0 0 0
  45 O    1     2.7510     5.1986  63 O    0 0 0
  45 O    1     2.7672     5.2292  39 O    0 0 0
  45 O    1     2.8399     5.3667  92 HF   0 0 0
  45 O    1     2.9716     5.6155   9 O    0 0 0
  45 O    1     2.9881     5.6467  31 O    0 0 0
  45 O    1     3.0628     5.7879  32 O    0 0 0
  45 O    1     3.1150     5.8865  30 O    0 0 0
  45 O    1     3.2657     6.1713  60 O    0 0 0
  45 O    1     3.3485     6.3277   7 O    0 0 0

  46 O    1     2.0521     3.8780  79 HF   0 0 0
  46 O    1     2.0528     3.8792  95 HF   0 0 0
  46 O    1     2.1145     3.9958  89 HF   0 0 0
  46 O    1     2.3928     4.5218  38 O    0 0 0
  46 O    1     2.6124     4.9367   6 O    0 0 0
  46 O    1     2.7641     5.2234  64 O    0 0 0
  46 O    1     2.8282     5.3446  48 O    0 0 0
[...]
  72 HF   1     2.1736     4.1075  24 O    0 0 0
  72 HF   1     2.1858     4.1306  37 O   -1 0 0
  72 HF   1     2.4371     4.6054  22 O    0 0 0
  72 HF   1     2.5642     4.8457  16 O    0 0-1
  72 HF   1     3.0421     5.7488   2 O    0 0 0
  72 HF   1     3.1565     5.9649  84 HF   0 0 0
  72 HF   1     3.1653     5.9816  76 HF   0 0 0
  72 HF   1     3.2359     6.1150  88 HF   0 0 0
  72 HF   1     3.2603     6.1611  94 HF  -1 0 0
  72 HF   1     3.2918     6.2205  82 HF   0 0 0
  72 HF   1     3.4650     6.5480  65 HF  -1 0 0

  73 HF   1     2.0017     3.7827  17 O    0 0 0
  73 HF   1     2.0160     3.8097  45 O    0 0 0
  73 HF   1     2.0182     3.8139  60 O    0 0 0
  73 HF   1     2.0253     3.8273  58 O    0 0 0
  73 HF   1     2.0304     3.8370   9 O    0 0 0
  73 HF   1     2.1160     3.9987  30 O    0 0 0
  73 HF   1     2.9270     5.5312  87 HF   0 0 0
  73 HF   1     2.9358     5.5478  61 O    0 0 0
  73 HF   1     3.0986     5.8554  80 HF   0 0 0
  73 HF   1     3.2030     6.0527  94 HF   0 0 0
  73 HF   1     3.2304     6.1046  68 HF   0 0 0
  73 HF   1     3.4177     6.4586  92 HF   0 0 0
  73 HF   1     3.4530     6.5252  26 O    0 0 0
  73 HF   1     3.4625     6.5432  53 O    0 0 0
  73 HF   1     3.4868     6.5890  90 HF   0 0 0

  74 HF   1     1.9421     3.6701  43 O   -1 0 0
  74 HF   1     2.0224     3.8218   7 O   -1 0 1
  74 HF   1     2.0431     3.8610  59 O    0 0 0
  74 HF   1     2.0544     3.8823   1 O    0 0 1
  74 HF   1     2.1705     4.1017  22 O    0 0 1
  74 HF   1     2.3749     4.4879  20 O    0 0 1
  74 HF   1     2.6434     4.9954  19 O   -1 0 0
  74 HF   1     3.0654     5.7928  51 O   -1 0 0
  74 HF   1     3.2829     6.2038  81 HF   0 0 1
  74 HF   1     3.2930     6.2229  56 O    0 0 0
  74 HF   1     3.3262     6.2856  85 HF  -1 0 0
  74 HF   1     3.3775     6.3826  84 HF   0 0 1
  74 HF   1     3.5853     6.7752  93 HF   0 0 0
  74 HF   1     3.6002     6.8034  82 HF   0 0 1
  74 HF   1     3.6392     6.8771  80 HF  -1 0 1

  75 HF   1     1.9164     3.6215  19 O    0 0 0
  75 HF   1     2.0719     3.9153  57 O    0 0 1
  75 HF   1     2.1014     3.9712  34 O    0 0 0
  75 HF   1     2.1095     3.9864  61 O    0 0 1
  75 HF   1     2.1371     4.0385  42 O    0 0 0
  75 HF   1     2.1529     4.0683  27 O    0 0 0
  75 HF   1     2.1633     4.0881  58 O    0 0 1
  75 HF   1     3.0275     5.7211  85 HF   0 0 0
  75 HF   1     3.1985     6.0443  78 HF   0 0 0
  75 HF   1     3.2119     6.0696  80 HF   0 0 1
  75 HF   1     3.2822     6.2024  31 O    0 0 0
  75 HF   1     3.2903     6.2177  18 O    0 0 0
  75 HF   1     3.3633     6.3558  69 HF   0-1 1
  75 HF   1     3.5391     6.6879  92 HF   0 0 0
  75 HF   1     3.6112     6.8243   7 O    0 0 1

  76 HF   1     2.0133     3.8046  36 O    0 0 0
  76 HF   1     2.0136     3.8052   2 O    0 0 0
  76 HF   1     2.0341     3.8440  28 O    0 1 0
  76 HF   1     2.0383     3.8517   4 O    0 0 0
  76 HF   1     2.0922     3.9536  21 O    0 0 0
  76 HF   1     2.2100     4.1762  40 O    0 0 0
  76 HF   1     2.3313     4.4056  41 O    0 0 0
  76 HF   1     2.9241     5.5258  23 O    0 0 0
  76 HF   1     3.0130     5.6938  81 HF   0 1 0
  76 HF   1     3.1653     5.9816  72 HF   0 0 0
  76 HF   1     3.2170     6.0792  83 HF   0 0 0
  76 HF   1     3.2246     6.0936  91 HF   0 1 0
  76 HF   1     3.2611     6.1626  13 O    0 0 0
  76 HF   1     3.4351     6.4915  68 HF   0 0 0
  76 HF   1     3.6534     6.9040  96 HF  -1 0 0

  77 HF   1     1.9822     3.7458  29 O    1 0 0
  77 HF   1     1.9945     3.7690  31 O    0 0 0
  77 HF   1     2.0444     3.8634  39 O    0 0 0
  77 HF   1     2.0456     3.8657  11 O    0 0 0
  77 HF   1     2.1889     4.1364  63 O    0 0 0
  77 HF   1     2.2549     4.2611  45 O    0 0 0
  77 HF   1     2.2580     4.2671  48 O    0-1 0
  77 HF   1     3.0528     5.7689  41 O    1-1 0
  77 HF   1     3.0544     5.7719  80 HF   0 0 0
  77 HF   1     3.0644     5.7909  66 HF   0-1 0
  77 HF   1     3.2293     6.1026  70 HF   1 0 0
  77 HF   1     3.2669     6.1735  53 O    0 0 0
  77 HF   1     3.3636     6.3562  92 HF   0 0 0
  77 HF   1     3.4998     6.6136  82 HF   1 0 0
  77 HF   1     3.5283     6.6676  71 HF   0-1 0

  78 HF   1     1.9581     3.7003  59 O    0 0 0
  78 HF   1     2.0182     3.8138  55 O    0-1 0
  78 HF   1     2.0513     3.8764  49 O    0 0 0
  78 HF   1     2.0997     3.9679  27 O    0 0 0
  78 HF   1     2.1631     4.0878  47 O    0 0 1
  78 HF   1     2.1728     4.1060  42 O    0 0 0
  78 HF   1     2.8610     5.4065  61 O    0 0 1
  78 HF   1     3.1398     5.9335  64 O    0-1 0
  78 HF   1     3.1985     6.0443  75 HF   0 0 0
  78 HF   1     3.4359     6.4929  90 HF   0 0 1
  78 HF   1     3.4517     6.5227  88 HF   0-1 1
  78 HF   1     3.4601     6.5387  83 HF   0-1 0
  78 HF   1     3.5614     6.7300  69 HF   0-1 1
  78 HF   1     3.5723     6.7506  14 O    0-1 0
  78 HF   1     3.6494     6.8964  92 HF   0 0 0

  79 HF   1     1.9436     3.6728  64 O    0 0 0
  79 HF   1     2.0521     3.8780  46 O    0 0 0
  79 HF   1     2.0551     3.8837   6 O    0 0 0
  79 HF   1     2.0828     3.9359  48 O    0 0 0
  79 HF   1     2.2601     4.2710  42 O    0 1 0
  79 HF   1     2.3270     4.3973  52 O    0 0 0
  79 HF   1     2.9607     5.5948  31 O    0 1 0
  79 HF   1     3.0416     5.7478  14 O    0 0 0
  79 HF   1     3.2804     6.1991  69 HF   0 0 1
  79 HF   1     3.2996     6.2353  66 HF   0 0 0
  79 HF   1     3.3655     6.3599  86 HF   0 0 1
  79 HF   1     3.3713     6.3709  89 HF   0 0 0
  79 HF   1     3.5260     6.6633  95 HF   0 0 0
  79 HF   1     3.5340     6.6784  19 O    0 1 0
  79 HF   1     3.5893     6.7828  38 O    0 0 0

  80 HF   1     1.9190     3.6263  57 O    0 0 0
  80 HF   1     2.0245     3.8258  45 O    0 0 0
  80 HF   1     2.0429     3.8604   7 O    0 0 0
  80 HF   1     2.0566     3.8864  63 O    0 0 0
  80 HF   1     2.1134     3.9938  58 O    0 0 0
  80 HF   1     2.2559     4.2631  11 O    0 0 0
  80 HF   1     2.3106     4.3665  10 O    0-1 0
  80 HF   1     3.0544     5.7719  77 HF   0 0 0
  80 HF   1     3.0986     5.8554  73 HF   0 0 0
  80 HF   1     3.1197     5.8954  19 O    0 0-1
  80 HF   1     3.1853     6.0194  81 HF   1 0 0
  80 HF   1     3.2119     6.0696  75 HF   0 0-1
  80 HF   1     3.3185     6.2711  54 O    0 0 0
  80 HF   1     3.4246     6.4715  94 HF   0 0 0
  80 HF   1     3.4353     6.4919  82 HF   1 0 0

  81 HF   1     2.0051     3.7890  63 O   -1 0 0
  81 HF   1     2.0409     3.8568   1 O    0 0 0
  81 HF   1     2.0506     3.8750  28 O    0 0 0
  81 HF   1     2.0698     3.9114  10 O   -1-1 0
  81 HF   1     2.1044     3.9768  41 O    0-1 0
  81 HF   1     2.1212     4.0085  20 O    0 0 0
  81 HF   1     2.1809     4.1212  40 O    0-1 0
  81 HF   1     3.0130     5.6938  76 HF   0-1 0
  81 HF   1     3.1198     5.8956  86 HF  -1-1 0
  81 HF   1     3.1638     5.9788  90 HF   0 0 0
  81 HF   1     3.1762     6.0021   7 O   -1 0 0
  81 HF   1     3.1853     6.0194  80 HF  -1 0 0
  81 HF   1     3.2066     6.0596  82 HF   0 0 0
  81 HF   1     3.2267     6.0977  65 HF  -1-1 0
  81 HF   1     3.2287     6.1014   8 O    0 0 0

  82 HF   1     2.0190     3.8154   5 O   -1 0 0
  82 HF   1     2.0296     3.8354   8 O    0 0 0
  82 HF   1     2.0621     3.8968  63 O   -1 0 0
  82 HF   1     2.0995     3.9676  24 O    0 0 0
  82 HF   1     2.1609     4.0836  20 O    0 0 0
  82 HF   1     2.1702     4.1011  44 O    0 0 0
  82 HF   1     2.2279     4.2102  39 O   -1 0 0
  82 HF   1     2.4923     4.7097   7 O   -1 0 0
  82 HF   1     3.1067     5.8707  70 HF   0 0 0
  82 HF   1     3.2066     6.0596  81 HF   0 0 0
  82 HF   1     3.2918     6.2205  72 HF   0 0 0
  82 HF   1     3.3104     6.2557  68 HF   0 0 0
  82 HF   1     3.3729     6.3738  96 HF  -1 0 0
  82 HF   1     3.4022     6.4292  22 O    0 0 0
  82 HF   1     3.4353     6.4919  80 HF  -1 0 0

  83 HF   1     2.0017     3.7827  55 O    0 0 0
  83 HF   1     2.0245     3.8258  64 O    0 0 0
  83 HF   1     2.0888     3.9472  36 O    0 0 0
  83 HF   1     2.0965     3.9617  23 O    0 0 0
  83 HF   1     2.1530     4.0686   3 O    0 0 0
  83 HF   1     2.3252     4.3939  21 O    0 0 0
  83 HF   1     2.4561     4.6413  38 O    0 0 0
  83 HF   1     2.8670     5.4179  14 O    0 0 0
  83 HF   1     3.0817     5.8236  67 HF   0 0 0
  83 HF   1     3.2170     6.0792  76 HF   0 0 0
  83 HF   1     3.2699     6.1791  88 HF   0 0 1
  83 HF   1     3.3320     6.2966  12 O    0 0 0
  83 HF   1     3.3919     6.4098  62 O    0 0 0
  83 HF   1     3.4601     6.5387  78 HF   0 1 0
  83 HF   1     3.4713     6.5598  49 O    0 1 0

  84 HF   1     1.9673     3.7176  18 O    0 0-1
  84 HF   1     2.0085     3.7954  50 O    0 0 0
  84 HF   1     2.0471     3.8684  17 O    0 0 0
  84 HF   1     2.0609     3.8946  22 O    0 0 0
  84 HF   1     2.1540     4.0706  61 O    0 0 0
  84 HF   1     2.2763     4.3016  24 O    0 0 0
  84 HF   1     2.4379     4.6070  59 O    0 0-1
  84 HF   1     2.9360     5.5482  20 O    0 0 0
  84 HF   1     3.1565     5.9649  72 HF   0 0 0
  84 HF   1     3.2163     6.0779  90 HF   0 0 0
  84 HF   1     3.3775     6.3826  74 HF   0 0-1
  84 HF   1     3.4124     6.4486  67 HF   0 0-1
  84 HF   1     3.4435     6.5073  30 O    0 0 0
  84 HF   1     3.4970     6.6084   3 O    0 0-1
  84 HF   1     3.5066     6.6266  56 O    0 0-1

  85 HF   1     1.9875     3.7559  34 O    0 0 0
  85 HF   1     1.9911     3.7626  33 O    0 0 0
  85 HF   1     1.9998     3.7791  19 O    0 0 0
  85 HF   1     2.1143     3.9954  43 O    0 0 0
  85 HF   1     2.1803     4.1202  51 O    0 0 0
  85 HF   1     2.1881     4.1348  32 O    0 0 0
  85 HF   1     2.2922     4.3316  31 O    0 0 0
  85 HF   1     3.0275     5.7211  75 HF   0 0 0
  85 HF   1     3.1149     5.8864  39 O    0 0 0
  85 HF   1     3.1802     6.0097  92 HF   0 0 0
  85 HF   1     3.2317     6.1070  93 HF   1 0 0
  85 HF   1     3.3262     6.2856  74 HF   1 0 0
  85 HF   1     3.4063     6.4370  70 HF   1 0 0
  85 HF   1     3.5226     6.6568  27 O    0 0 0
  85 HF   1     3.6142     6.8299  89 HF   0 0 0

  86 HF   1     1.9486     3.6824  52 O    0 0-1
  86 HF   1     1.9893     3.7592  16 O    1 0-1
  86 HF   1     2.0028     3.7847  10 O    0 0 0
  86 HF   1     2.0500     3.8739   6 O    0 0-1
  86 HF   1     2.1340     4.0327   1 O    1 1 0
  86 HF   1     2.3089     4.3631  37 O    0 0 0
  86 HF   1     3.0266     5.7195  40 O    1 0 0
  86 HF   1     3.1198     5.8956  81 HF   1 1 0
  86 HF   1     3.3141     6.2628  65 HF   0 0 0
  86 HF   1     3.3655     6.3599  79 HF   0 0-1
  86 HF   1     3.4863     6.5882  57 O    0 1 0
  86 HF   1     3.6049     6.8123  72 HF   1 0 0
  86 HF   1     3.6561     6.9090  66 HF   0 0-1
  86 HF   1     3.6622     6.9206  15 O    0 0 0
  86 HF   1     3.6844     6.9625  93 HF   1 0-1

  87 HF   1     1.9907     3.7619  13 O    0 0 0
  87 HF   1     2.0436     3.8618  17 O    0 0 0
  87 HF   1     2.0850     3.9401  15 O    0 0 0
  87 HF   1     2.1087     3.9848   2 O    0 0 0
  87 HF   1     2.1425     4.0488   9 O    0 0 0
  87 HF   1     2.2112     4.1786  12 O    0 0 0
  87 HF   1     2.3195     4.3831  60 O    0 0 0
  87 HF   1     2.3983     4.5322  26 O    0 0 0
  87 HF   1     2.9270     5.5312  73 HF   0 0 0
  87 HF   1     3.1987     6.0447  71 HF   0 0 0
  87 HF   1     3.2083     6.0628  68 HF   0 0 0
  87 HF   1     3.2535     6.1482  69 HF   0 0 0
  87 HF   1     3.3192     6.2724  50 O    0 0 0
  87 HF   1     3.4773     6.5712  95 HF   0 0 0
  87 HF   1     3.5719     6.7499  94 HF   0 0 0

  88 HF   1     1.9607     3.7051  50 O    0 0 0
  88 HF   1     2.0236     3.8240  14 O    0 0-1
  88 HF   1     2.1652     4.0916  55 O    0 0-1
  88 HF   1     2.1676     4.0961  47 O    0 1 0
  88 HF   1     2.1933     4.1447  13 O    0 0 0
  88 HF   1     2.2031     4.1633   3 O    0 0-1
  88 HF   1     2.3793     4.4962  40 O    0 0 0
  88 HF   1     2.4884     4.7025  16 O    0 0-1
  88 HF   1     3.1088     5.8748  69 HF   0 0 0
  88 HF   1     3.2359     6.1150  72 HF   0 0 0
  88 HF   1     3.2699     6.1791  83 HF   0 0-1
  88 HF   1     3.4492     6.5180  18 O    0 0-1
  88 HF   1     3.4517     6.5227  78 HF   0 1-1
  88 HF   1     3.5277     6.6664   1 O    0 1 0
  88 HF   1     3.6522     6.9016  93 HF   0 0-1

  89 HF   1     1.9167     3.6220  26 O    0 0 1
  89 HF   1     2.0053     3.7896  14 O    0 0 0
  89 HF   1     2.0754     3.9219  34 O    0 0 0
  89 HF   1     2.1145     3.9958  46 O    0 0 0
  89 HF   1     2.1482     4.0595  18 O    0 0 0
  89 HF   1     2.1484     4.0600  38 O    0 0 0
  89 HF   1     2.8707     5.4248   6 O    0 0 0
  89 HF   1     3.1789     6.0072  67 HF   0 0 0
  89 HF   1     3.2628     6.1657  95 HF   0 0 0
  89 HF   1     3.3240     6.2815  51 O    0 0 0
  89 HF   1     3.3713     6.3709  79 HF   0 0 0
  89 HF   1     3.4648     6.5475  32 O    0 0 0
  89 HF   1     3.5013     6.6165  69 HF   0 0 1
  89 HF   1     3.5156     6.6435  94 HF   0 0 1
  89 HF   1     3.5250     6.6613   3 O    0 0 0

  90 HF   1     1.9499     3.6847  61 O    0 0 0
  90 HF   1     1.9644     3.7122  54 O    0 0 0
  90 HF   1     2.0221     3.8213  47 O    0 0 0
  90 HF   1     2.0754     3.9219  30 O    0 0 0
  90 HF   1     2.0924     3.9540  20 O    0 0 0
  90 HF   1     2.1100     3.9873  28 O    0 0 0
  90 HF   1     2.9982     5.6657  59 O    0 0-1
  90 HF   1     3.0981     5.8545  91 HF   0 0 0
  90 HF   1     3.1638     5.9788  81 HF   0 0 0
  90 HF   1     3.2163     6.0779  84 HF   0 0 0
  90 HF   1     3.2429     6.1282  69 HF   0-1 0
  90 HF   1     3.3669     6.3626  57 O    0 0 0
  90 HF   1     3.3694     6.3672   8 O    0 0 0
  90 HF   1     3.4359     6.4929  78 HF   0 0-1
  90 HF   1     3.4868     6.5890  73 HF   0 0 0

  91 HF   1     1.9411     3.6682   8 O    0 0 0
  91 HF   1     1.9696     3.7221  49 O    0 0 0
  91 HF   1     2.0279     3.8321  53 O    0 0 0
  91 HF   1     2.0486     3.8713  21 O    0-1 0
  91 HF   1     2.1626     4.0866  28 O    0 0 0
  91 HF   1     2.2416     4.2361  30 O    0 0 0
  91 HF   1     2.8561     5.3972  35 O    0 0 0
  91 HF   1     3.0101     5.6883  36 O    0-1 0
  91 HF   1     3.0848     5.8295  54 O    0 0 0
  91 HF   1     3.0981     5.8545  90 HF   0 0 0
  91 HF   1     3.1161     5.8886  71 HF   0-1 0
  91 HF   1     3.2104     6.0667  70 HF   0 0 0
  91 HF   1     3.2119     6.0696  92 HF   0 0 0
  91 HF   1     3.2246     6.0936  76 HF   0-1 0
  91 HF   1     3.5083     6.6298  29 O    0 0 0

  92 HF   1     1.9168     3.6222  27 O    0 0 0
  92 HF   1     1.9653     3.7138  53 O    0 0 0
  92 HF   1     2.0057     3.7902  32 O    0 0 0
  92 HF   1     2.0150     3.8079  31 O    0 0 0
  92 HF   1     2.0884     3.9465  35 O    0 0 0
  92 HF   1     2.8399     5.3667  45 O    0 0 0
  92 HF   1     3.0393     5.7435  60 O    0 0 0
  92 HF   1     3.1461     5.9452  34 O    0 0 0
  92 HF   1     3.1802     6.0097  85 HF   0 0 0
  92 HF   1     3.2119     6.0696  91 HF   0 0 0
  92 HF   1     3.2738     6.1866  30 O    0 0 0
  92 HF   1     3.3532     6.3366  49 O    0 0 0
  92 HF   1     3.3636     6.3562  77 HF   0 0 0
  92 HF   1     3.4127     6.4491  67 HF   0 0 0
  92 HF   1     3.4177     6.4586  73 HF   0 0 0

  93 HF   1     2.0375     3.8504  56 O    0 0 0
  93 HF   1     2.0476     3.8694  51 O   -1 0 0
  93 HF   1     2.0516     3.8769  16 O    0 0 0
  93 HF   1     2.0703     3.9123  33 O   -1 0 0
  93 HF   1     2.1331     4.0310  62 O    0 0 0
  93 HF   1     2.2965     4.3397  22 O    0 0 1
  93 HF   1     2.2978     4.3422   3 O    0 0 0
  93 HF   1     3.1453     5.9437  43 O   -1 0 0
  93 HF   1     3.2070     6.0603  96 HF  -1 0 0
  93 HF   1     3.2317     6.1070  85 HF  -1 0 0
  93 HF   1     3.2352     6.1137  67 HF   0 0 0
  93 HF   1     3.3045     6.2446  50 O    0 0 1
  93 HF   1     3.5732     6.7524  72 HF   0 0 1
  93 HF   1     3.5853     6.7752  74 HF   0 0 0
  93 HF   1     3.6165     6.8342  23 O    0 0 0

  94 HF   1     2.0174     3.8124   9 O    0 0 0
  94 HF   1     2.0605     3.8939  26 O    0 0 0
  94 HF   1     2.0659     3.9040   5 O    0 0 0
  94 HF   1     2.0869     3.9437  58 O    0 0 0
  94 HF   1     2.1338     4.0323  51 O    0 0-1
  94 HF   1     2.2912     4.3298  37 O    0 0 0
  94 HF   1     2.3405     4.4228   7 O    0 0 0
  94 HF   1     3.0810     5.8222  34 O    0 0-1
  94 HF   1     3.2030     6.0527  73 HF   0 0 0
  94 HF   1     3.2603     6.1611  72 HF   1 0 0
  94 HF   1     3.3424     6.3162  22 O    1 0 0
  94 HF   1     3.4246     6.4715  80 HF   0 0 0
  94 HF   1     3.5156     6.6435  89 HF   0 0-1
  94 HF   1     3.5274     6.6659  19 O    0 0-1
  94 HF   1     3.5719     6.7499  87 HF   0 0 0

  95 HF   1     1.9526     3.6900  12 O    0 0 0
  95 HF   1     1.9950     3.7701  32 O    0 0 0
  95 HF   1     2.0075     3.7937  38 O    0 0 0
  95 HF   1     2.0528     3.8792  46 O    0 0 0
  95 HF   1     2.1640     4.0894  25 O    0 0 0
  95 HF   1     2.3068     4.3592  60 O    0 0 0
  95 HF   1     3.1460     5.9450   9 O    0 0 0
  95 HF   1     3.2416     6.1256  64 O    0 0 0
  95 HF   1     3.2628     6.1657  89 HF   0 0 0
  95 HF   1     3.4207     6.4643  33 O    0 0 0
  95 HF   1     3.4329     6.4873  48 O    0 0 0
  95 HF   1     3.4773     6.5712  87 HF   0 0 0
  95 HF   1     3.5260     6.6633  79 HF   0 0 0
  95 HF   1     3.5326     6.6757  96 HF   0 0 0
  95 HF   1     3.5897     6.7835  92 HF   0 0 0

  96 HF   1     1.9476     3.6804  62 O    1 0 0
  96 HF   1     1.9763     3.7346  25 O    0 0 0
  96 HF   1     1.9854     3.7519  33 O    0 0 0
  96 HF   1     2.0206     3.8185  44 O    1 0 0
  96 HF   1     2.0463     3.8669   4 O    1 0 0
  96 HF   1     2.7982     5.2877  39 O    0 0 0
  96 HF   1     2.9062     5.4919   5 O    0 0 0
  96 HF   1     3.1319     5.9185  23 O    1 0 0
  96 HF   1     3.2070     6.0603  93 HF   1 0 0
  96 HF   1     3.2471     6.1362  56 O    1 0 0
  96 HF   1     3.3729     6.3738  82 HF   1 0 0
  96 HF   1     3.3835     6.3938  70 HF   1 0 0
  96 HF   1     3.3928     6.4114  66 HF   0 0 0
  96 HF   1     3.4403     6.5013  36 O    1 0 0
  96 HF   1     3.4699     6.5571  65 HF   0 0 0


 SYMMETRY ALLOWED INTERNAL DEGREE(S) OF FREEDOM: 285
 TTTTTTTTTTTTTTTTTTTTTTTTTTTTTT SYMM        TELAPSE        4.09 TCPU        2.92
 TTTTTTTTTTTTTTTTTTTTTTTTTTTTTT INT_SCREEN  TELAPSE        6.91 TCPU        5.73
 INFORMATION **** EXCBUF **** EXCH. BIPO BUFFER: WORDS USED =      360000
 WARNING **** EXCBUF **** EXCH. BIPO BUFFER TOO SMALL - TO AVOID I/O SET EXCHSIZE =    20704572

 DFT PARAMETERS

     ATOM       ELECTRONS   NET CHARGE   R(ANGSTROM)
   1   8  O      10.0000     -2.0000     1.40000000
  65 272  HF      8.0000      4.0000     0.71000000
forrtl: error (69): process interrupted (SIGINT)
Image              PC                Routine            Line        Source             
crystal            0000000000B9F499  Unknown               Unknown  Unknown
crystal            0000000000B9DE10  Unknown               Unknown  Unknown
crystal            0000000000B505A2  Unknown               Unknown  Unknown
crystal            0000000000AFDEE3  Unknown               Unknown  Unknown
crystal            0000000000B03C35  Unknown               Unknown  Unknown
libpthread.so.0    00007FFFEC1E2850  Unknown               Unknown  Unknown
crystal            000000000061DD4B  Unknown               Unknown  Unknown
crystal            0000000000631A58  Unknown               Unknown  Unknown
crystal            0000000000624532  Unknown               Unknown  Unknown
crystal            000000000070AE26  Unknown               Unknown  Unknown
crystal            000000000043926F  Unknown               Unknown  Unknown
crystal            0000000000438F86  Unknown               Unknown  Unknown
libc.so.6          00007FFFEBE75C36  Unknown               Unknown  Unknown
crystal            0000000000438E79  Unknown               Unknown  Unknown
