--------------------------------------------------------------------------
WARNING: Open MPI will create a shared memory backing file in a
directory that appears to be mounted on a network filesystem.
Creating the shared memory backup file on a network file system, such
as NFS or Lustre is not recommended -- it may cause excessive network
traffic to your file servers and/or cause shared memory traffic in
Open MPI to be much slower than expected.

You may want to check what the typical temporary directory is on your
node.  Possible sources of the location of this temporary directory
include the $TEMPDIR, $TEMP, and $TMP environment variables.

Note, too, that system administrators can set a list of filesystems
where Open MPI is disallowed from creating temporary files by settings
the MCA parameter "orte_no_session_dir".

  Local host: r2i4n15
  Fileame:    /ichec/work/scratch/tmp/227800.service1.cb3.ichec.ie/openmpi-sessions-emehes@r2i4n15_0/34781/1/shared_mem_pool.r2i4n15

You can set the MCA paramter shmem_mmap_enable_nfs_warning to 0 to
disable this message.
--------------------------------------------------------------------------
--------------------------------------------------------------------------
WARNING: It appears that your OpenFabrics subsystem is configured to only
allow registering part of your physical memory.  This can cause MPI jobs to
run with erratic performance, hang, and/or crash.

This may be caused by your OpenFabrics vendor limiting the amount of
physical memory that can be registered.  You should investigate the
relevant Linux kernel module parameters that control how much physical
memory can be registered, and increase them to allow registering all
physical memory on your machine.

See this Open MPI FAQ item for more information on these Linux kernel module
parameters:

    http://www.open-mpi.org/faq/?category=openfabrics#ib-locked-pages

  Local host:              r2i3n8
  Registerable memory:     32768 MiB
  Total memory:            65506 MiB

Your MPI job will continue, but may be behave poorly and/or hang.
--------------------------------------------------------------------------
         192 PROCESSORS WORKING

         
 *******************************************************************************
 *                                                                             *
 *                                CRYSTAL09                                    *
 *                              public : 2.0                                   *
 *                      December 10th, 2012 - parallel executable              *
 *                                                                             *
 *                                                                             *
 *                                                                             *
 *                              MAIN AUTHORS                                   *
 *                                                                             *
 *    R. DOVESI(1,10), V.R. SAUNDERS(2), C. ROETTI(1,10), R. ORLANDO (1,3),    *
 *  C.M. ZICOVICH-WILSON(1,4), F. PASCALE(5), B. CIVALLERI(1,10), K. DOLL(6),  *
 *       N.M. HARRISON(2,7), I. J. BUSH(2), Ph. D'ARCO(8), M. LLUNELL(9)       *
 *                                                                             *
 * (1) THEORETICAL CHEMISTRY GROUP - UNIVERSITA' DI TORINO - TORINO (ITALY)    *
 *      http://www.crystal.unito.it                                            *
 * (2) COMPUTATIONAL SCIENCE & ENGINEERING DEPARTMENT - STFC DARESBURY LABORATO*Y (UK)
 *     http://www.cse.stfc.ac.uk/cmg/CRYSTAL/                                  *
 * (3) UNIVERSITA' DEL PIEMONTE ORIENTALE - ALESSANDRIA (ITALY)                *
 * (4) UNIVERSIDAD AUTONOMA DEL ESTADO DE MORELOS - CUERNAVACA (MEXICO)        *
 * (5) UNIVERSITE' HENRI POINCARE' - NANCY (FRANCE)                            *
 * (6) MPI FUER FESTKOERPERFORSCHUNG - STUTTGART (GERMANY)                     *
 * (7) IMPERIAL COLLEGE - LONDON (UK)                                          *
 * (8) UNIVERSITE' PIERRE ET MARIE CURIE - PARIS (FRANCE)                      *
 * (9) UNIVERSIDAD DE BARCELONA - BARCELONA (SPAIN)                            *
 *(10) NIS - NANOSTRUCTURED INTERFACES AND SURFACES - TORINO (ITALY)           *
 *     http://www.crystal.unito.it                                             *
 *******************************************************************************
 EEEEEEEEEE STARTING  DATE 09 07 2014 TIME 22:22:30.1
 Created with astools                                                            

 CRYSTAL CALCULATION
 (INPUT ACCORDING TO THE INTERNATIONAL TABLES FOR X-RAY CRYSTALLOGRAPHY)
 CRYSTAL FAMILY                       :  TRICLINIC   
 CRYSTAL CLASS  (GROTH - 1921)        :  TRICLINIC PEDIAL                     

 SPACE GROUP (NONCENTROSYMMETRIC)     :  P 1             

 LATTICE PARAMETERS  (ANGSTROMS AND DEGREES) - CONVENTIONAL CELL
        A           B           C        ALPHA        BETA       GAMMA
    11.07140    10.48440    20.87130    90.00000    90.00000    90.00000


 NUMBER OF IRREDUCIBLE ATOMS IN THE CONVENTIONAL CELL:  148

 INPUT COORDINATES

 ATOM AT. N.              COORDINATES
   1   8     2.487370000000E-01  3.698030000000E-01  6.355930000000E-01
   2   8     4.685390000000E-01  3.668640000000E-01  6.059860000000E-01
   3   8     8.584290000000E-01  4.168330000000E-01  5.609740000000E-01
   4   8     1.474570000000E-01  4.627700000000E-02  6.308360000000E-01
   5   8     5.763920000000E-01  6.297130000000E-01  5.433310000000E-01
   6   8     8.631560000000E-01  6.494240000000E-01  6.292600000000E-01
   7   8     3.174810000000E-01  3.218670000000E-01  5.146820000000E-01
   8   8     7.547410000000E-01  1.412550000000E-01  4.931440000000E-01
   9   8     9.013380000000E-01  2.297300000000E-02  6.714110000000E-01
  10   8     9.400240000000E-01  3.467000000000E-02  5.505850000000E-01
  11   8     5.884840000000E-01  7.650490000000E-01  6.601350000000E-01
  12   8     2.840710000000E-01  8.563570000000E-01  6.136930000000E-01
  13   8     1.941710000000E-01  6.673140000000E-01  5.381630000000E-01
  14   8     9.540490000000E-01  6.207330000000E-01  5.177460000000E-01
  15   8     4.421500000000E-02  8.213870000000E-01  6.053810000000E-01
  16   8     7.314650000000E-01  7.798130000000E-01  5.423110000000E-01
  17   8     5.002930000000E-01  8.827100000000E-01  5.497810000000E-01
  18   8     3.567160000000E-01  1.332460000000E-01  6.063580000000E-01
  19   8     2.499810000000E-01  8.403870000000E-01  7.953660000000E-01
  20   8     1.236100000000E-01  2.471840000000E-01  8.601320000000E-01
  21   8     1.855430000000E-01  6.275240000000E-01  6.563370000000E-01
  22   8     9.241330000000E-01  4.506710000000E-01  9.989260000000E-01
  23   8     3.086140000000E-01  7.230900000000E-02  8.341690000000E-01
  24   8     6.457590000000E-01  2.124160000000E-01  6.844550000000E-01
  25   8     1.566040000000E-01  5.859180000000E-01  8.781480000000E-01
  26   8     7.714430000000E-01  4.598700000000E-02  7.902360000000E-01
  27   8     3.551040000000E-01  3.932190000000E-01  8.389320000000E-01
  28   8     2.298530000000E-01  4.931270000000E-01  7.490750000000E-01
  29   8     7.300500000000E-02  8.950660000000E-01  7.188870000000E-01
  30   8     9.455190000000E-01  8.943260000000E-01  9.704820000000E-01
  31   8     8.389420000000E-01  5.720970000000E-01  7.452580000000E-01
  32   8     4.254440000000E-01  6.133410000000E-01  7.904490000000E-01
  33   8     8.062850000000E-01  8.304820000000E-01  7.334420000000E-01
  34   8     5.417600000000E-01  1.168290000000E-01  9.622490000000E-01
  35   8     4.749950000000E-01  8.947730000000E-01 -3.440000000000E-04
  36   8     4.853130000000E-01  8.586510000000E-01  7.872190000000E-01
  37   8     5.171690000000E-01  7.435110000000E-01  8.966000000000E-01
  38   8     8.996860000000E-01  8.735600000000E-02  8.977230000000E-01
  39   8     5.268430000000E-01  3.852510000000E-01  9.534160000000E-01
  40   8     6.971120000000E-01  2.083330000000E-01  8.820550000000E-01
  41   8     3.790500000000E-02  9.098190000000E-01  8.464720000000E-01
  42   8     1.338540000000E-01  5.369700000000E-02  9.368810000000E-01
  43   8     3.361980000000E-01  5.117350000000E-01  9.463720000000E-01
  44   8     2.794000000000E-02  4.399400000000E-01  7.979750000000E-01
  45   8     1.030060000000E-01  2.215010000000E-01  7.345580000000E-01
  46   8     8.959200000000E-01  2.551640000000E-01  8.075400000000E-01
  47   8     3.526080000000E-01  9.990090000000E-01  7.121250000000E-01
  48   8     4.701970000000E-01  3.938840000000E-01  7.255800000000E-01
  49   8     2.217400000000E-02  4.492080000000E-01  6.537740000000E-01
  50   8     6.823720000000E-01  4.003470000000E-01  7.732500000000E-01
  51   8     6.536630000000E-01  6.475530000000E-01  8.081280000000E-01
  52   8     8.104450000000E-01  5.008550000000E-01  8.738790000000E-01
  53   8     6.264800000000E-02  6.889630000000E-01  7.815090000000E-01
  54   8     6.640210000000E-01  4.531920000000E-01  6.413990000000E-01
  55   8     2.825350000000E-01  7.663960000000E-01  9.573550000000E-01
  56   8     2.966740000000E-01  2.528890000000E-01  9.418510000000E-01
  57  14     1.161660000000E-01  9.763300000000E-02  3.455100000000E-02
  58  14     2.633220000000E-01  2.576890000000E-01  3.411300000000E-02
  59  14     1.823940000000E-01  4.329880000000E-01  9.176500000000E-02
  60  14     4.236550000000E-01  1.729670000000E-01  9.406100000000E-02
  61  14     5.437700000000E-02  3.084680000000E-01  1.548550000000E-01
  62  14     3.001800000000E-01  5.420900000000E-02  1.616650000000E-01
  63  14     1.735260000000E-01  1.855240000000E-01  2.233610000000E-01
  64  14     4.296620000000E-01  4.257960000000E-01  2.237320000000E-01
  65  14     9.403200000000E-02  6.002730000000E-01  3.819300000000E-02
  66  14     2.604460000000E-01  7.442800000000E-01  4.126200000000E-02
  67  14     1.837240000000E-01  9.254870000000E-01  9.375300000000E-02
  68  14     4.380690000000E-01  6.566360000000E-01  8.471000000000E-02
  69  14     4.776300000000E-02  8.153840000000E-01  1.594330000000E-01
  70  14     3.110740000000E-01  5.523730000000E-01  1.582530000000E-01
  71  14     1.787330000000E-01  6.848330000000E-01  2.196660000000E-01
  72  14     4.365700000000E-01  9.280530000000E-01  2.181250000000E-01
  73  14     5.321080000000E-01  3.106100000000E-02  2.793200000000E-02
  74  14     8.276040000000E-01  3.233750000000E-01  2.265100000000E-02
  75  14     6.782370000000E-01  4.284650000000E-01  8.436400000000E-02
  76  14     9.407340000000E-01  1.808250000000E-01  8.412800000000E-02
  77  14     5.554210000000E-01  3.076530000000E-01  1.534580000000E-01
  78  14     8.115010000000E-01  6.502100000000E-02  1.541410000000E-01
  79  14     6.828260000000E-01  1.877570000000E-01  2.204670000000E-01
  80  14     9.235300000000E-01  4.369370000000E-01  2.182330000000E-01
  81  14     5.784030000000E-01  5.549640000000E-01  7.681000000000E-03
  82  14     8.311940000000E-01  8.220660000000E-01  1.501400000000E-02
  83  14     6.943890000000E-01  9.417050000000E-01  8.383700000000E-02
  84  14     9.303710000000E-01  6.910260000000E-01  9.008200000000E-02
  85  14     5.577820000000E-01  8.061650000000E-01  1.449900000000E-01
  86  14     7.994950000000E-01  5.589120000000E-01  1.499920000000E-01
  87  14     6.799980000000E-01  6.897190000000E-01  2.161260000000E-01
  88  14     9.284910000000E-01  9.437750000000E-01  2.262660000000E-01
  89  14     5.009500000000E-02  7.199700000000E-02  2.936450000000E-01
  90  14     2.963680000000E-01  3.080080000000E-01  2.898720000000E-01
  91  14     4.427100000000E-02  5.672090000000E-01  2.842400000000E-01
  92  14     3.023210000000E-01  8.147680000000E-01  2.847560000000E-01
  93  14     5.525290000000E-01  6.341600000000E-02  2.834990000000E-01
  94  14     8.042580000000E-01  3.146940000000E-01  2.891160000000E-01
  95  14     5.564150000000E-01  5.625040000000E-01  2.800090000000E-01
  96  14     7.970830000000E-01  8.186960000000E-01  2.877360000000E-01
  97  14     1.617160000000E-01  4.385370000000E-01  3.503140000000E-01
  98  14     4.288100000000E-01  1.845440000000E-01  3.512920000000E-01
  99  14     5.427000000000E-02  3.284340000000E-01  4.309790000000E-01
 100  14     3.129680000000E-01  6.929900000000E-02  4.254750000000E-01
 101  14     1.938770000000E-01  2.048290000000E-01  4.914950000000E-01
 102  14     4.218580000000E-01  4.411950000000E-01  4.746580000000E-01
 103  14     1.881990000000E-01  9.511200000000E-01  3.532260000000E-01
 104  14     4.306680000000E-01  6.829230000000E-01  3.438380000000E-01
 105  14     6.607700000000E-02  8.254060000000E-01  4.179420000000E-01
 106  14     3.003350000000E-01  5.626060000000E-01  4.064120000000E-01
 107  14     2.350160000000E-01  7.331910000000E-01  4.679670000000E-01
 108  14     4.090890000000E-01  8.917990000000E-01  4.826590000000E-01
 109  14     6.751940000000E-01  4.443000000000E-01  3.490590000000E-01
 110  14     9.277870000000E-01  1.987020000000E-01  3.630280000000E-01
 111  14     5.515090000000E-01  3.162670000000E-01  4.113530000000E-01
 112  14     8.058800000000E-01  5.639900000000E-02  4.244650000000E-01
 113  14     6.055450000000E-01  2.166420000000E-01  5.066850000000E-01
 114  14     9.195910000000E-01  4.711630000000E-01  4.925680000000E-01
 115  14     6.731870000000E-01  9.467020000000E-01  3.542650000000E-01
 116  14     9.267950000000E-01  6.980870000000E-01  3.543100000000E-01
 117  14     5.472550000000E-01  8.097600000000E-01  4.111520000000E-01
 118  14     7.963460000000E-01  5.629430000000E-01  4.165370000000E-01
 119  14     6.623830000000E-01  6.833390000000E-01  4.795970000000E-01
 120  14     9.301850000000E-01  9.247910000000E-01  4.890130000000E-01
 121  14     3.465060000000E-01  2.878250000000E-01  5.930200000000E-01
 122  14     3.281200000000E-02  9.614600000000E-01  6.518040000000E-01
 123  14     1.818130000000E-01  7.436900000000E-01  6.047290000000E-01
 124  14     5.924550000000E-01  4.168760000000E-01  5.685350000000E-01
 125  14     8.295550000000E-01  1.390380000000E-01  5.730190000000E-01
 126  14     8.719180000000E-01  4.632290000000E-01  6.374050000000E-01
 127  14     2.905980000000E-01  1.009049000000E+00  6.414300000000E-01
 128  14     5.839440000000E-01  7.719120000000E-01  5.867560000000E-01
 129  14     8.914920000000E-01  7.412700000000E-01  5.553210000000E-01
 130  14     2.239870000000E-01  1.500250000000E-01  8.858020000000E-01
 131  14     8.991820000000E-01  4.037880000000E-01  9.213640000000E-01
 132  14     3.585630000000E-01  9.455840000000E-01  7.863620000000E-01
 133  14     7.778520000000E-01  9.847670000000E-01  7.179920000000E-01
 134  14     1.191460000000E-01  5.542340000000E-01  8.051360000000E-01
 135  14     8.762970000000E-01  7.041890000000E-01  7.089470000000E-01
 136  14     5.246480000000E-01  7.179030000000E-01  8.182560000000E-01
 137  14     2.850590000000E-01  6.387390000000E-01  9.087470000000E-01
 138  14     8.122570000000E-01  1.516100000000E-01  8.431210000000E-01
 139  14     3.946070000000E-01  3.781670000000E-01  9.146700000000E-01
 140  14     4.142400000000E-02  2.799250000000E-01  7.942670000000E-01
 141  14     1.052430000000E-01  8.390280000000E-01  7.873000000000E-01
 142  14     5.561090000000E-01  2.229590000000E-01  9.054520000000E-01
 143  14     6.165100000000E-01  3.522580000000E-01  7.048860000000E-01
 144  14    -7.670000000000E-04 -1.889400000000E-02  9.127780000000E-01
 145  14     1.639250000000E-01  4.735790000000E-01  6.688740000000E-01
 146  14     4.341040000000E-01  8.710210000000E-01  9.227790000000E-01
 147  14     3.845990000000E-01  4.694550000000E-01  7.733660000000E-01
 148  14     7.463890000000E-01  5.251820000000E-01  8.040130000000E-01

 *******************************************************************************

 << INFORMATION >>: FROM NOW ON, ALL COORDINATES REFER TO THE PRIMITIVE CELL

 *******************************************************************************

 LATTICE PARAMETERS  (ANGSTROMS AND DEGREES) - PRIMITIVE CELL
       A          B          C         ALPHA     BETA     GAMMA        VOLUME
   11.07140   10.48440   20.87130    90.00000  90.00000  90.00000   2422.677601

 COORDINATES OF THE EQUIVALENT ATOMS (FRACTIONAL UNITS)

 N. ATOM EQUIV AT. N.          X                  Y                  Z

   1   1   1    8 O     2.48737000000E-01  3.69803000000E-01 -3.64407000000E-01

   2   2   1    8 O     4.68539000000E-01  3.66864000000E-01 -3.94014000000E-01

   3   3   1    8 O    -1.41571000000E-01  4.16833000000E-01 -4.39026000000E-01

   4   4   1    8 O     1.47457000000E-01  4.62770000000E-02 -3.69164000000E-01

   5   5   1    8 O    -4.23608000000E-01 -3.70287000000E-01 -4.56669000000E-01

   6   6   1    8 O    -1.36844000000E-01 -3.50576000000E-01 -3.70740000000E-01

   7   7   1    8 O     3.17481000000E-01  3.21867000000E-01 -4.85318000000E-01

   8   8   1    8 O    -2.45259000000E-01  1.41255000000E-01  4.93144000000E-01

   9   9   1    8 O    -9.86620000000E-02  2.29730000000E-02 -3.28589000000E-01

  10  10   1    8 O    -5.99760000000E-02  3.46700000000E-02 -4.49415000000E-01

  11  11   1    8 O    -4.11516000000E-01 -2.34951000000E-01 -3.39865000000E-01

  12  12   1    8 O     2.84071000000E-01 -1.43643000000E-01 -3.86307000000E-01

  13  13   1    8 O     1.94171000000E-01 -3.32686000000E-01 -4.61837000000E-01

  14  14   1    8 O    -4.59510000000E-02 -3.79267000000E-01 -4.82254000000E-01

  15  15   1    8 O     4.42150000000E-02 -1.78613000000E-01 -3.94619000000E-01

  16  16   1    8 O    -2.68535000000E-01 -2.20187000000E-01 -4.57689000000E-01

  17  17   1    8 O    -4.99707000000E-01 -1.17290000000E-01 -4.50219000000E-01

  18  18   1    8 O     3.56716000000E-01  1.33246000000E-01 -3.93642000000E-01

  19  19   1    8 O     2.49981000000E-01 -1.59613000000E-01 -2.04634000000E-01

  20  20   1    8 O     1.23610000000E-01  2.47184000000E-01 -1.39868000000E-01

  21  21   1    8 O     1.85543000000E-01 -3.72476000000E-01 -3.43663000000E-01

  22  22   1    8 O    -7.58670000000E-02  4.50671000000E-01 -1.07400000000E-03

  23  23   1    8 O     3.08614000000E-01  7.23090000000E-02 -1.65831000000E-01

  24  24   1    8 O    -3.54241000000E-01  2.12416000000E-01 -3.15545000000E-01

  25  25   1    8 O     1.56604000000E-01 -4.14082000000E-01 -1.21852000000E-01

  26  26   1    8 O    -2.28557000000E-01  4.59870000000E-02 -2.09764000000E-01

  27  27   1    8 O     3.55104000000E-01  3.93219000000E-01 -1.61068000000E-01

  28  28   1    8 O     2.29853000000E-01  4.93127000000E-01 -2.50925000000E-01

  29  29   1    8 O     7.30050000000E-02 -1.04934000000E-01 -2.81113000000E-01

  30  30   1    8 O    -5.44810000000E-02 -1.05674000000E-01 -2.95180000000E-02

  31  31   1    8 O    -1.61058000000E-01 -4.27903000000E-01 -2.54742000000E-01

  32  32   1    8 O     4.25444000000E-01 -3.86659000000E-01 -2.09551000000E-01

  33  33   1    8 O    -1.93715000000E-01 -1.69518000000E-01 -2.66558000000E-01

  34  34   1    8 O    -4.58240000000E-01  1.16829000000E-01 -3.77510000000E-02

  35  35   1    8 O     4.74995000000E-01 -1.05227000000E-01 -3.44000000000E-04

  36  36   1    8 O     4.85313000000E-01 -1.41349000000E-01 -2.12781000000E-01

  37  37   1    8 O    -4.82831000000E-01 -2.56489000000E-01 -1.03400000000E-01

  38  38   1    8 O    -1.00314000000E-01  8.73560000000E-02 -1.02277000000E-01

  39  39   1    8 O    -4.73157000000E-01  3.85251000000E-01 -4.65840000000E-02

  40  40   1    8 O    -3.02888000000E-01  2.08333000000E-01 -1.17945000000E-01

  41  41   1    8 O     3.79050000000E-02 -9.01810000000E-02 -1.53528000000E-01

  42  42   1    8 O     1.33854000000E-01  5.36970000000E-02 -6.31190000000E-02

  43  43   1    8 O     3.36198000000E-01 -4.88265000000E-01 -5.36280000000E-02

  44  44   1    8 O     2.79400000000E-02  4.39940000000E-01 -2.02025000000E-01

  45  45   1    8 O     1.03006000000E-01  2.21501000000E-01 -2.65442000000E-01

  46  46   1    8 O    -1.04080000000E-01  2.55164000000E-01 -1.92460000000E-01

  47  47   1    8 O     3.52608000000E-01 -9.91000000000E-04 -2.87875000000E-01

  48  48   1    8 O     4.70197000000E-01  3.93884000000E-01 -2.74420000000E-01

  49  49   1    8 O     2.21740000000E-02  4.49208000000E-01 -3.46226000000E-01

  50  50   1    8 O    -3.17628000000E-01  4.00347000000E-01 -2.26750000000E-01

  51  51   1    8 O    -3.46337000000E-01 -3.52447000000E-01 -1.91872000000E-01

  52  52   1    8 O    -1.89555000000E-01 -4.99145000000E-01 -1.26121000000E-01

  53  53   1    8 O     6.26480000000E-02 -3.11037000000E-01 -2.18491000000E-01

  54  54   1    8 O    -3.35979000000E-01  4.53192000000E-01 -3.58601000000E-01

  55  55   1    8 O     2.82535000000E-01 -2.33604000000E-01 -4.26450000000E-02

  56  56   1    8 O     2.96674000000E-01  2.52889000000E-01 -5.81490000000E-02

  57  57   1   14 SI    1.16166000000E-01  9.76330000000E-02  3.45510000000E-02

  58  58   1   14 SI    2.63322000000E-01  2.57689000000E-01  3.41130000000E-02

  59  59   1   14 SI    1.82394000000E-01  4.32988000000E-01  9.17650000000E-02

  60  60   1   14 SI    4.23655000000E-01  1.72967000000E-01  9.40610000000E-02

  61  61   1   14 SI    5.43770000000E-02  3.08468000000E-01  1.54855000000E-01

  62  62   1   14 SI    3.00180000000E-01  5.42090000000E-02  1.61665000000E-01

  63  63   1   14 SI    1.73526000000E-01  1.85524000000E-01  2.23361000000E-01

  64  64   1   14 SI    4.29662000000E-01  4.25796000000E-01  2.23732000000E-01

  65  65   1   14 SI    9.40320000000E-02 -3.99727000000E-01  3.81930000000E-02

  66  66   1   14 SI    2.60446000000E-01 -2.55720000000E-01  4.12620000000E-02

  67  67   1   14 SI    1.83724000000E-01 -7.45130000000E-02  9.37530000000E-02

  68  68   1   14 SI    4.38069000000E-01 -3.43364000000E-01  8.47100000000E-02

  69  69   1   14 SI    4.77630000000E-02 -1.84616000000E-01  1.59433000000E-01

  70  70   1   14 SI    3.11074000000E-01 -4.47627000000E-01  1.58253000000E-01

  71  71   1   14 SI    1.78733000000E-01 -3.15167000000E-01  2.19666000000E-01

  72  72   1   14 SI    4.36570000000E-01 -7.19470000000E-02  2.18125000000E-01

  73  73   1   14 SI   -4.67892000000E-01  3.10610000000E-02  2.79320000000E-02

  74  74   1   14 SI   -1.72396000000E-01  3.23375000000E-01  2.26510000000E-02

  75  75   1   14 SI   -3.21763000000E-01  4.28465000000E-01  8.43640000000E-02

  76  76   1   14 SI   -5.92660000000E-02  1.80825000000E-01  8.41280000000E-02

  77  77   1   14 SI   -4.44579000000E-01  3.07653000000E-01  1.53458000000E-01

  78  78   1   14 SI   -1.88499000000E-01  6.50210000000E-02  1.54141000000E-01

  79  79   1   14 SI   -3.17174000000E-01  1.87757000000E-01  2.20467000000E-01

  80  80   1   14 SI   -7.64700000000E-02  4.36937000000E-01  2.18233000000E-01

  81  81   1   14 SI   -4.21597000000E-01 -4.45036000000E-01  7.68100000000E-03

  82  82   1   14 SI   -1.68806000000E-01 -1.77934000000E-01  1.50140000000E-02

  83  83   1   14 SI   -3.05611000000E-01 -5.82950000000E-02  8.38370000000E-02

  84  84   1   14 SI   -6.96290000000E-02 -3.08974000000E-01  9.00820000000E-02

  85  85   1   14 SI   -4.42218000000E-01 -1.93835000000E-01  1.44990000000E-01

  86  86   1   14 SI   -2.00505000000E-01 -4.41088000000E-01  1.49992000000E-01

  87  87   1   14 SI   -3.20002000000E-01 -3.10281000000E-01  2.16126000000E-01

  88  88   1   14 SI   -7.15090000000E-02 -5.62250000000E-02  2.26266000000E-01

  89  89   1   14 SI    5.00950000000E-02  7.19970000000E-02  2.93645000000E-01

  90  90   1   14 SI    2.96368000000E-01  3.08008000000E-01  2.89872000000E-01

  91  91   1   14 SI    4.42710000000E-02 -4.32791000000E-01  2.84240000000E-01

  92  92   1   14 SI    3.02321000000E-01 -1.85232000000E-01  2.84756000000E-01

  93  93   1   14 SI   -4.47471000000E-01  6.34160000000E-02  2.83499000000E-01

  94  94   1   14 SI   -1.95742000000E-01  3.14694000000E-01  2.89116000000E-01

  95  95   1   14 SI   -4.43585000000E-01 -4.37496000000E-01  2.80009000000E-01

  96  96   1   14 SI   -2.02917000000E-01 -1.81304000000E-01  2.87736000000E-01

  97  97   1   14 SI    1.61716000000E-01  4.38537000000E-01  3.50314000000E-01

  98  98   1   14 SI    4.28810000000E-01  1.84544000000E-01  3.51292000000E-01

  99  99   1   14 SI    5.42700000000E-02  3.28434000000E-01  4.30979000000E-01

 100 100   1   14 SI    3.12968000000E-01  6.92990000000E-02  4.25475000000E-01

 101 101   1   14 SI    1.93877000000E-01  2.04829000000E-01  4.91495000000E-01

 102 102   1   14 SI    4.21858000000E-01  4.41195000000E-01  4.74658000000E-01

 103 103   1   14 SI    1.88199000000E-01 -4.88800000000E-02  3.53226000000E-01

 104 104   1   14 SI    4.30668000000E-01 -3.17077000000E-01  3.43838000000E-01

 105 105   1   14 SI    6.60770000000E-02 -1.74594000000E-01  4.17942000000E-01

 106 106   1   14 SI    3.00335000000E-01 -4.37394000000E-01  4.06412000000E-01

 107 107   1   14 SI    2.35016000000E-01 -2.66809000000E-01  4.67967000000E-01

 108 108   1   14 SI    4.09089000000E-01 -1.08201000000E-01  4.82659000000E-01

 109 109   1   14 SI   -3.24806000000E-01  4.44300000000E-01  3.49059000000E-01

 110 110   1   14 SI   -7.22130000000E-02  1.98702000000E-01  3.63028000000E-01

 111 111   1   14 SI   -4.48491000000E-01  3.16267000000E-01  4.11353000000E-01

 112 112   1   14 SI   -1.94120000000E-01  5.63990000000E-02  4.24465000000E-01

 113 113   1   14 SI   -3.94455000000E-01  2.16642000000E-01 -4.93315000000E-01

 114 114   1   14 SI   -8.04090000000E-02  4.71163000000E-01  4.92568000000E-01

 115 115   1   14 SI   -3.26813000000E-01 -5.32980000000E-02  3.54265000000E-01

 116 116   1   14 SI   -7.32050000000E-02 -3.01913000000E-01  3.54310000000E-01

 117 117   1   14 SI   -4.52745000000E-01 -1.90240000000E-01  4.11152000000E-01

 118 118   1   14 SI   -2.03654000000E-01 -4.37057000000E-01  4.16537000000E-01

 119 119   1   14 SI   -3.37617000000E-01 -3.16661000000E-01  4.79597000000E-01

 120 120   1   14 SI   -6.98150000000E-02 -7.52090000000E-02  4.89013000000E-01

 121 121   1   14 SI    3.46506000000E-01  2.87825000000E-01 -4.06980000000E-01

 122 122   1   14 SI    3.28120000000E-02 -3.85400000000E-02 -3.48196000000E-01

 123 123   1   14 SI    1.81813000000E-01 -2.56310000000E-01 -3.95271000000E-01

 124 124   1   14 SI   -4.07545000000E-01  4.16876000000E-01 -4.31465000000E-01

 125 125   1   14 SI   -1.70445000000E-01  1.39038000000E-01 -4.26981000000E-01

 126 126   1   14 SI   -1.28082000000E-01  4.63229000000E-01 -3.62595000000E-01

 127 127   1   14 SI    2.90598000000E-01  9.04900000000E-03 -3.58570000000E-01

 128 128   1   14 SI   -4.16056000000E-01 -2.28088000000E-01 -4.13244000000E-01

 129 129   1   14 SI   -1.08508000000E-01 -2.58730000000E-01 -4.44679000000E-01

 130 130   1   14 SI    2.23987000000E-01  1.50025000000E-01 -1.14198000000E-01

 131 131   1   14 SI   -1.00818000000E-01  4.03788000000E-01 -7.86360000000E-02

 132 132   1   14 SI    3.58563000000E-01 -5.44160000000E-02 -2.13638000000E-01

 133 133   1   14 SI   -2.22148000000E-01 -1.52330000000E-02 -2.82008000000E-01

 134 134   1   14 SI    1.19146000000E-01 -4.45766000000E-01 -1.94864000000E-01

 135 135   1   14 SI   -1.23703000000E-01 -2.95811000000E-01 -2.91053000000E-01

 136 136   1   14 SI   -4.75352000000E-01 -2.82097000000E-01 -1.81744000000E-01

 137 137   1   14 SI    2.85059000000E-01 -3.61261000000E-01 -9.12530000000E-02

 138 138   1   14 SI   -1.87743000000E-01  1.51610000000E-01 -1.56879000000E-01

 139 139   1   14 SI    3.94607000000E-01  3.78167000000E-01 -8.53300000000E-02

 140 140   1   14 SI    4.14240000000E-02  2.79925000000E-01 -2.05733000000E-01

 141 141   1   14 SI    1.05243000000E-01 -1.60972000000E-01 -2.12700000000E-01

 142 142   1   14 SI   -4.43891000000E-01  2.22959000000E-01 -9.45480000000E-02

 143 143   1   14 SI   -3.83490000000E-01  3.52258000000E-01 -2.95114000000E-01

 144 144   1   14 SI   -7.67000000000E-04 -1.88940000000E-02 -8.72220000000E-02

 145 145   1   14 SI    1.63925000000E-01  4.73579000000E-01 -3.31126000000E-01

 146 146   1   14 SI    4.34104000000E-01 -1.28979000000E-01 -7.72210000000E-02

 147 147   1   14 SI    3.84599000000E-01  4.69455000000E-01 -2.26634000000E-01

 148 148   1   14 SI   -2.53611000000E-01 -4.74818000000E-01 -1.95987000000E-01

 NUMBER OF SYMMETRY OPERATORS         :    1
 *******************************************************************************
 * GEOMETRY EDITING - INPUT COORDINATES ARE GIVEN IN ANGSTROM         
 *******************************************************************************

 GCALCO - MAX INDICES DIRECT LATTICE VECTOR    18    19     9
 NO.OF VECTORS CREATED 6999 STARS 1059 RMAX   301.31941 BOHR

 GEOMETRY FOR WAVE FUNCTION - DIMENSIONALITY OF THE SYSTEM    3
 (NON PERIODIC DIRECTION: LATTICE PARAMETER FORMALLY SET TO 500)
 *******************************************************************************
 LATTICE PARAMETERS (ANGSTROMS AND DEGREES) - BOHR = 0.5291772083 ANGSTROM
 PRIMITIVE CELL - CENTRING CODE 1/0 VOLUME=  2422.677601 - DENSITY  2.378 g/cm^3
         A              B              C           ALPHA      BETA       GAMMA 
    11.07140000    10.48440000    20.87130000    90.000000  90.000000  90.000000
 *******************************************************************************
 ATOMS IN THE ASYMMETRIC UNIT  148 - ATOMS IN THE UNIT CELL:  148
     ATOM              X/A                 Y/B                 Z/C    
 *******************************************************************************
   1 T   8 O     2.487370000000E-01  3.698030000000E-01 -3.644070000000E-01
   2 T   8 O     4.685390000000E-01  3.668640000000E-01 -3.940140000000E-01
   3 T   8 O    -1.415710000000E-01  4.168330000000E-01 -4.390260000000E-01
   4 T   8 O     1.474570000000E-01  4.627700000000E-02 -3.691640000000E-01
   5 T   8 O    -4.236080000000E-01 -3.702870000000E-01 -4.566690000000E-01
   6 T   8 O    -1.368440000000E-01 -3.505760000000E-01 -3.707400000000E-01
   7 T   8 O     3.174810000000E-01  3.218670000000E-01 -4.853180000000E-01
   8 T   8 O    -2.452590000000E-01  1.412550000000E-01  4.931440000000E-01
   9 T   8 O    -9.866200000000E-02  2.297300000000E-02 -3.285890000000E-01
  10 T   8 O    -5.997600000000E-02  3.467000000000E-02 -4.494150000000E-01
  11 T   8 O    -4.115160000000E-01 -2.349510000000E-01 -3.398650000000E-01
  12 T   8 O     2.840710000000E-01 -1.436430000000E-01 -3.863070000000E-01
  13 T   8 O     1.941710000000E-01 -3.326860000000E-01 -4.618370000000E-01
  14 T   8 O    -4.595100000000E-02 -3.792670000000E-01 -4.822540000000E-01
  15 T   8 O     4.421500000000E-02 -1.786130000000E-01 -3.946190000000E-01
  16 T   8 O    -2.685350000000E-01 -2.201870000000E-01 -4.576890000000E-01
  17 T   8 O    -4.997070000000E-01 -1.172900000000E-01 -4.502190000000E-01
  18 T   8 O     3.567160000000E-01  1.332460000000E-01 -3.936420000000E-01
  19 T   8 O     2.499810000000E-01 -1.596130000000E-01 -2.046340000000E-01
  20 T   8 O     1.236100000000E-01  2.471840000000E-01 -1.398680000000E-01
  21 T   8 O     1.855430000000E-01 -3.724760000000E-01 -3.436630000000E-01
  22 T   8 O    -7.586700000000E-02  4.506710000000E-01 -1.074000000000E-03
  23 T   8 O     3.086140000000E-01  7.230900000000E-02 -1.658310000000E-01
  24 T   8 O    -3.542410000000E-01  2.124160000000E-01 -3.155450000000E-01
  25 T   8 O     1.566040000000E-01 -4.140820000000E-01 -1.218520000000E-01
  26 T   8 O    -2.285570000000E-01  4.598700000000E-02 -2.097640000000E-01
  27 T   8 O     3.551040000000E-01  3.932190000000E-01 -1.610680000000E-01
  28 T   8 O     2.298530000000E-01  4.931270000000E-01 -2.509250000000E-01
  29 T   8 O     7.300500000000E-02 -1.049340000000E-01 -2.811130000000E-01
  30 T   8 O    -5.448100000000E-02 -1.056740000000E-01 -2.951800000000E-02
  31 T   8 O    -1.610580000000E-01 -4.279030000000E-01 -2.547420000000E-01
  32 T   8 O     4.254440000000E-01 -3.866590000000E-01 -2.095510000000E-01
  33 T   8 O    -1.937150000000E-01 -1.695180000000E-01 -2.665580000000E-01
  34 T   8 O    -4.582400000000E-01  1.168290000000E-01 -3.775100000000E-02
  35 T   8 O     4.749950000000E-01 -1.052270000000E-01 -3.440000000000E-04
  36 T   8 O     4.853130000000E-01 -1.413490000000E-01 -2.127810000000E-01
  37 T   8 O    -4.828310000000E-01 -2.564890000000E-01 -1.034000000000E-01
  38 T   8 O    -1.003140000000E-01  8.735600000000E-02 -1.022770000000E-01
  39 T   8 O    -4.731570000000E-01  3.852510000000E-01 -4.658400000000E-02
  40 T   8 O    -3.028880000000E-01  2.083330000000E-01 -1.179450000000E-01
  41 T   8 O     3.790500000000E-02 -9.018100000000E-02 -1.535280000000E-01
  42 T   8 O     1.338540000000E-01  5.369700000000E-02 -6.311900000000E-02
  43 T   8 O     3.361980000000E-01 -4.882650000000E-01 -5.362800000000E-02
  44 T   8 O     2.794000000000E-02  4.399400000000E-01 -2.020250000000E-01
  45 T   8 O     1.030060000000E-01  2.215010000000E-01 -2.654420000000E-01
  46 T   8 O    -1.040800000000E-01  2.551640000000E-01 -1.924600000000E-01
  47 T   8 O     3.526080000000E-01 -9.910000000000E-04 -2.878750000000E-01
  48 T   8 O     4.701970000000E-01  3.938840000000E-01 -2.744200000000E-01
  49 T   8 O     2.217400000000E-02  4.492080000000E-01 -3.462260000000E-01
  50 T   8 O    -3.176280000000E-01  4.003470000000E-01 -2.267500000000E-01
  51 T   8 O    -3.463370000000E-01 -3.524470000000E-01 -1.918720000000E-01
  52 T   8 O    -1.895550000000E-01 -4.991450000000E-01 -1.261210000000E-01
  53 T   8 O     6.264800000000E-02 -3.110370000000E-01 -2.184910000000E-01
  54 T   8 O    -3.359790000000E-01  4.531920000000E-01 -3.586010000000E-01
  55 T   8 O     2.825350000000E-01 -2.336040000000E-01 -4.264500000000E-02
  56 T   8 O     2.966740000000E-01  2.528890000000E-01 -5.814900000000E-02
  57 T  14 SI    1.161660000000E-01  9.763300000000E-02  3.455100000000E-02
  58 T  14 SI    2.633220000000E-01  2.576890000000E-01  3.411300000000E-02
  59 T  14 SI    1.823940000000E-01  4.329880000000E-01  9.176500000000E-02
  60 T  14 SI    4.236550000000E-01  1.729670000000E-01  9.406100000000E-02
  61 T  14 SI    5.437700000000E-02  3.084680000000E-01  1.548550000000E-01
  62 T  14 SI    3.001800000000E-01  5.420900000000E-02  1.616650000000E-01
  63 T  14 SI    1.735260000000E-01  1.855240000000E-01  2.233610000000E-01
  64 T  14 SI    4.296620000000E-01  4.257960000000E-01  2.237320000000E-01
  65 T  14 SI    9.403200000000E-02 -3.997270000000E-01  3.819300000000E-02
  66 T  14 SI    2.604460000000E-01 -2.557200000000E-01  4.126200000000E-02
  67 T  14 SI    1.837240000000E-01 -7.451300000000E-02  9.375300000000E-02
  68 T  14 SI    4.380690000000E-01 -3.433640000000E-01  8.471000000000E-02
  69 T  14 SI    4.776300000000E-02 -1.846160000000E-01  1.594330000000E-01
  70 T  14 SI    3.110740000000E-01 -4.476270000000E-01  1.582530000000E-01
  71 T  14 SI    1.787330000000E-01 -3.151670000000E-01  2.196660000000E-01
  72 T  14 SI    4.365700000000E-01 -7.194700000000E-02  2.181250000000E-01
  73 T  14 SI   -4.678920000000E-01  3.106100000000E-02  2.793200000000E-02
  74 T  14 SI   -1.723960000000E-01  3.233750000000E-01  2.265100000000E-02
  75 T  14 SI   -3.217630000000E-01  4.284650000000E-01  8.436400000000E-02
  76 T  14 SI   -5.926600000000E-02  1.808250000000E-01  8.412800000000E-02
  77 T  14 SI   -4.445790000000E-01  3.076530000000E-01  1.534580000000E-01
  78 T  14 SI   -1.884990000000E-01  6.502100000000E-02  1.541410000000E-01
  79 T  14 SI   -3.171740000000E-01  1.877570000000E-01  2.204670000000E-01
  80 T  14 SI   -7.647000000000E-02  4.369370000000E-01  2.182330000000E-01
  81 T  14 SI   -4.215970000000E-01 -4.450360000000E-01  7.681000000000E-03
  82 T  14 SI   -1.688060000000E-01 -1.779340000000E-01  1.501400000000E-02
  83 T  14 SI   -3.056110000000E-01 -5.829500000000E-02  8.383700000000E-02
  84 T  14 SI   -6.962900000000E-02 -3.089740000000E-01  9.008200000000E-02
  85 T  14 SI   -4.422180000000E-01 -1.938350000000E-01  1.449900000000E-01
  86 T  14 SI   -2.005050000000E-01 -4.410880000000E-01  1.499920000000E-01
  87 T  14 SI   -3.200020000000E-01 -3.102810000000E-01  2.161260000000E-01
  88 T  14 SI   -7.150900000000E-02 -5.622500000000E-02  2.262660000000E-01
  89 T  14 SI    5.009500000000E-02  7.199700000000E-02  2.936450000000E-01
  90 T  14 SI    2.963680000000E-01  3.080080000000E-01  2.898720000000E-01
  91 T  14 SI    4.427100000000E-02 -4.327910000000E-01  2.842400000000E-01
  92 T  14 SI    3.023210000000E-01 -1.852320000000E-01  2.847560000000E-01
  93 T  14 SI   -4.474710000000E-01  6.341600000000E-02  2.834990000000E-01
  94 T  14 SI   -1.957420000000E-01  3.146940000000E-01  2.891160000000E-01
  95 T  14 SI   -4.435850000000E-01 -4.374960000000E-01  2.800090000000E-01
  96 T  14 SI   -2.029170000000E-01 -1.813040000000E-01  2.877360000000E-01
  97 T  14 SI    1.617160000000E-01  4.385370000000E-01  3.503140000000E-01
  98 T  14 SI    4.288100000000E-01  1.845440000000E-01  3.512920000000E-01
  99 T  14 SI    5.427000000000E-02  3.284340000000E-01  4.309790000000E-01
 100 T  14 SI    3.129680000000E-01  6.929900000000E-02  4.254750000000E-01
 101 T  14 SI    1.938770000000E-01  2.048290000000E-01  4.914950000000E-01
 102 T  14 SI    4.218580000000E-01  4.411950000000E-01  4.746580000000E-01
 103 T  14 SI    1.881990000000E-01 -4.888000000000E-02  3.532260000000E-01
 104 T  14 SI    4.306680000000E-01 -3.170770000000E-01  3.438380000000E-01
 105 T  14 SI    6.607700000000E-02 -1.745940000000E-01  4.179420000000E-01
 106 T  14 SI    3.003350000000E-01 -4.373940000000E-01  4.064120000000E-01
 107 T  14 SI    2.350160000000E-01 -2.668090000000E-01  4.679670000000E-01
 108 T  14 SI    4.090890000000E-01 -1.082010000000E-01  4.826590000000E-01
 109 T  14 SI   -3.248060000000E-01  4.443000000000E-01  3.490590000000E-01
 110 T  14 SI   -7.221300000000E-02  1.987020000000E-01  3.630280000000E-01
 111 T  14 SI   -4.484910000000E-01  3.162670000000E-01  4.113530000000E-01
 112 T  14 SI   -1.941200000000E-01  5.639900000000E-02  4.244650000000E-01
 113 T  14 SI   -3.944550000000E-01  2.166420000000E-01 -4.933150000000E-01
 114 T  14 SI   -8.040900000000E-02  4.711630000000E-01  4.925680000000E-01
 115 T  14 SI   -3.268130000000E-01 -5.329800000000E-02  3.542650000000E-01
 116 T  14 SI   -7.320500000000E-02 -3.019130000000E-01  3.543100000000E-01
 117 T  14 SI   -4.527450000000E-01 -1.902400000000E-01  4.111520000000E-01
 118 T  14 SI   -2.036540000000E-01 -4.370570000000E-01  4.165370000000E-01
 119 T  14 SI   -3.376170000000E-01 -3.166610000000E-01  4.795970000000E-01
 120 T  14 SI   -6.981500000000E-02 -7.520900000000E-02  4.890130000000E-01
 121 T  14 SI    3.465060000000E-01  2.878250000000E-01 -4.069800000000E-01
 122 T  14 SI    3.281200000000E-02 -3.854000000000E-02 -3.481960000000E-01
 123 T  14 SI    1.818130000000E-01 -2.563100000000E-01 -3.952710000000E-01
 124 T  14 SI   -4.075450000000E-01  4.168760000000E-01 -4.314650000000E-01
 125 T  14 SI   -1.704450000000E-01  1.390380000000E-01 -4.269810000000E-01
 126 T  14 SI   -1.280820000000E-01  4.632290000000E-01 -3.625950000000E-01
 127 T  14 SI    2.905980000000E-01  9.049000000000E-03 -3.585700000000E-01
 128 T  14 SI   -4.160560000000E-01 -2.280880000000E-01 -4.132440000000E-01
 129 T  14 SI   -1.085080000000E-01 -2.587300000000E-01 -4.446790000000E-01
 130 T  14 SI    2.239870000000E-01  1.500250000000E-01 -1.141980000000E-01
 131 T  14 SI   -1.008180000000E-01  4.037880000000E-01 -7.863600000000E-02
 132 T  14 SI    3.585630000000E-01 -5.441600000000E-02 -2.136380000000E-01
 133 T  14 SI   -2.221480000000E-01 -1.523300000000E-02 -2.820080000000E-01
 134 T  14 SI    1.191460000000E-01 -4.457660000000E-01 -1.948640000000E-01
 135 T  14 SI   -1.237030000000E-01 -2.958110000000E-01 -2.910530000000E-01
 136 T  14 SI   -4.753520000000E-01 -2.820970000000E-01 -1.817440000000E-01
 137 T  14 SI    2.850590000000E-01 -3.612610000000E-01 -9.125300000000E-02
 138 T  14 SI   -1.877430000000E-01  1.516100000000E-01 -1.568790000000E-01
 139 T  14 SI    3.946070000000E-01  3.781670000000E-01 -8.533000000000E-02
 140 T  14 SI    4.142400000000E-02  2.799250000000E-01 -2.057330000000E-01
 141 T  14 SI    1.052430000000E-01 -1.609720000000E-01 -2.127000000000E-01
 142 T  14 SI   -4.438910000000E-01  2.229590000000E-01 -9.454800000000E-02
 143 T  14 SI   -3.834900000000E-01  3.522580000000E-01 -2.951140000000E-01
 144 T  14 SI   -7.670000000000E-04 -1.889400000000E-02 -8.722200000000E-02
 145 T  14 SI    1.639250000000E-01  4.735790000000E-01 -3.311260000000E-01
 146 T  14 SI    4.341040000000E-01 -1.289790000000E-01 -7.722100000000E-02
 147 T  14 SI    3.845990000000E-01  4.694550000000E-01 -2.266340000000E-01
 148 T  14 SI   -2.536110000000E-01 -4.748180000000E-01 -1.959870000000E-01

 T = ATOM BELONGING TO THE ASYMMETRIC UNIT

 ****   1 SYMMOPS - TRANSLATORS IN FRACTIONAL UNITS
  V INV                   ROTATION MATRICES                       TRANSLATOR
  1  1  1.00  0.00  0.00  0.00  1.00  0.00  0.00  0.00  1.00    0.00  0.00  0.00

 DIRECT LATTICE VECTORS CARTESIAN COMPONENTS (ANGSTROM)
          X                    Y                    Z
   0.110714000000E+02   0.677927728604E-15   0.000000000000E+00
   0.000000000000E+00   0.104844000000E+02   0.000000000000E+00
   0.127799853695E-14   0.127799853695E-14   0.208713000000E+02


 CARTESIAN COORDINATES - PRIMITIVE CELL
 *******************************************************************************
 *      ATOM          X(ANGSTROM)         Y(ANGSTROM)         Z(ANGSTROM)
 *******************************************************************************
   1     8 O     2.753866821800E+00  3.877162573200E+00 -7.605647819100E+00
   2     8 O     5.187382684600E+00  3.846348921600E+00 -8.223584398200E+00
   3     8 O    -1.567389169400E+00  4.370243905200E+00 -9.163043353800E+00
   4     8 O     1.632555429800E+00  4.851865788000E-01 -7.704932593200E+00
   5     8 O    -4.689933611200E+00 -3.882237022800E+00 -9.531275699700E+00
   6     8 O    -1.515054661600E+00 -3.675579014400E+00 -7.737825762000E+00
   7     8 O     3.514959143400E+00  3.374582374800E+00 -1.012921757340E+01
   8     8 O    -2.715360492600E+00  1.480973922000E+00  1.029255636720E+01
   9     8 O    -1.092326466800E+00  2.408581212000E-01 -6.858079595700E+00
  10     8 O    -6.640182864000E-01  3.634941480000E-01 -9.379875289500E+00
  11     8 O    -4.556058242400E+00 -2.463320264400E+00 -7.093424374500E+00
  12     8 O     3.145063669400E+00 -1.506010669200E+00 -8.062729289100E+00
  13     8 O     2.149744809400E+00 -3.488013098400E+00 -9.639138578100E+00
  14     8 O    -5.087419014000E-01 -3.976386934800E+00 -1.006526791020E+01
  15     8 O     4.895219510000E-01 -1.872650137200E+00 -8.236211534700E+00
  16     8 O    -2.973058399000E+00 -2.308528582800E+00 -9.552564425700E+00
  17     8 O    -5.532456079800E+00 -1.229715276000E+00 -9.396655814700E+00
  18     8 O     3.949345522400E+00  1.397004362400E+00 -8.215820274600E+00
  19     8 O     2.767639643400E+00 -1.673446537200E+00 -4.270977604200E+00
  20     8 O     1.368535754000E+00  2.591575929600E+00 -2.919226988400E+00
  21     8 O     2.054220770200E+00 -3.905187374400E+00 -7.172693571900E+00
  22     8 O    -8.399539038000E-01  4.725015032400E+00 -2.241577620000E-02
  23     8 O     3.416789039600E+00  7.581164796000E-01 -3.461108550300E+00
  24     8 O    -3.921943807400E+00  2.227054310400E+00 -6.585834358500E+00
  25     8 O     1.733825525600E+00 -4.341401320800E+00 -2.543209647600E+00
  26     8 O    -2.530445969800E+00  4.821461028000E-01 -4.378047373200E+00
  27     8 O     3.931498425600E+00  4.122665283600E+00 -3.361698548400E+00
  28     8 O     2.544794504200E+00  5.170140718800E+00 -5.237130952500E+00
  29     8 O     8.082675570000E-01 -1.100170029600E+00 -5.867193756900E+00
  30     8 O    -6.031809434000E-01 -1.107928485600E+00 -6.160790334000E-01
  31     8 O    -1.783137541200E+00 -4.486306213200E+00 -5.316796704600E+00
  32     8 O     4.710260701600E+00 -4.053887619600E+00 -4.373601786300E+00
  33     8 O    -2.144696251000E+00 -1.777294519200E+00 -5.563411985400E+00
  34     8 O    -5.073358336000E+00  1.224881967600E+00 -7.879124463000E-01
  35     8 O     5.258859643000E+00 -1.103241958800E+00 -7.179727200000E-03
  36     8 O     5.373094348200E+00 -1.481959455600E+00 -4.441016085300E+00
  37     8 O    -5.345615133400E+00 -2.689133271600E+00 -2.158092420000E+00
  38     8 O    -1.110616419600E+00  9.158752464000E-01 -2.134653950100E+00
  39     8 O    -5.238510409800E+00  4.039125584400E+00 -9.722686392000E-01
  40     8 O    -3.353394203200E+00  2.184246505200E+00 -2.461665478500E+00
  41     8 O     4.196614170000E-01 -9.454936764000E-01 -3.204328946400E+00
  42     8 O     1.481951175600E+00  5.629808268000E-01 -1.317375584700E+00
  43     8 O     3.722182537200E+00 -5.119165566000E+00 -1.119286076400E+00
  44     8 O     3.093349160000E-01  4.612506936000E+00 -4.216524382500E+00
  45     8 O     1.140420628400E+00  2.322305084400E+00 -5.540119614600E+00
  46     8 O    -1.152311312000E+00  2.675241441600E+00 -4.016890398000E+00
  47     8 O     3.903864211200E+00 -1.039004040000E-02 -6.008325487500E+00
  48     8 O     5.205739065800E+00  4.129637409600E+00 -5.727502146000E+00
  49     8 O     2.454972236000E-01  4.709676355200E+00 -7.226186713800E+00
  50     8 O    -3.516586639200E+00  4.197398086800E+00 -4.732567275000E+00
  51     8 O    -3.834435461800E+00 -3.695195326800E+00 -4.004618073600E+00
  52     8 O    -2.098639227000E+00 -5.233235838000E+00 -2.632309227300E+00
  53     8 O     6.936010672000E-01 -3.261036322800E+00 -4.560191208300E+00
  54     8 O    -3.719757900600E+00  4.751446204800E+00 -7.484469051300E+00
  55     8 O     3.128057999000E+00 -2.449197777600E+00 -8.900565885000E-01
  56     8 O     3.284596523600E+00  2.651389431600E+00 -1.213645223700E+00
  57    14 SI    1.286120252400E+00  1.023623425200E+00  7.211242863000E-01
  58    14 SI    2.915343190800E+00  2.701714551600E+00  7.119826569000E-01
  59    14 SI    2.019356931600E+00  4.539619387200E+00  1.915254844500E+00
  60    14 SI    4.690453967000E+00  1.813455214800E+00  1.963175349300E+00
  61    14 SI    6.020295178000E-01  3.234101899200E+00  3.232025161500E+00
  62    14 SI    3.323412852000E+00  5.683488396000E-01  3.374158714500E+00
  63    14 SI    1.921175756400E+00  1.945107825600E+00  4.661834439300E+00
  64    14 SI    4.756959866800E+00  4.464215582400E+00  4.669577691600E+00
  65    14 SI    1.041065884800E+00 -4.190897758800E+00  7.971375609000E-01
  66    14 SI    2.883501844400E+00 -2.681070768000E+00  8.611915806000E-01
  67    14 SI    2.034081893600E+00 -7.812240972000E-01  1.956746988900E+00
  68    14 SI    4.850037126600E+00 -3.599965521600E+00  1.768007823000E+00
  69    14 SI    5.288032782000E-01 -1.935587990400E+00  3.327573972900E+00
  70    14 SI    3.444024683600E+00 -4.693100518800E+00  3.302945838900E+00
  71    14 SI    1.978824536200E+00 -3.304336894800E+00  4.584714985800E+00
  72    14 SI    4.833441098000E+00 -7.543211268000E-01  4.552552312500E+00
  73    14 SI   -5.180219488800E+00  3.256559484000E-01  5.829771516000E-01
  74    14 SI   -1.908665074400E+00  3.390392850000E+00  4.727558163000E-01
  75    14 SI   -3.562366878200E+00  4.492198446000E+00  1.760786353200E+00
  76    14 SI   -6.561575924000E-01  1.895841630000E+00  1.755860726400E+00
  77    14 SI   -4.922111940600E+00  3.225557113200E+00  3.202867955400E+00
  78    14 SI   -2.086947828600E+00  6.817061724000E-01  3.217123053300E+00
  79    14 SI   -3.511560223600E+00  1.968519490800E+00  4.601432897100E+00
  80    14 SI   -8.466299580000E-01  4.581022282800E+00  4.554806412900E+00
  81    14 SI   -4.667669025800E+00 -4.665935438400E+00  1.603124553000E-01
  82    14 SI   -1.868918748400E+00 -1.865531229600E+00  3.133616982000E-01
  83    14 SI   -3.383541625400E+00 -6.111880980000E-01  1.749787178100E+00
  84    14 SI   -7.708905106000E-01 -3.239407005600E+00  1.880128446600E+00
  85    14 SI   -4.895972365200E+00 -2.032243674000E+00  3.026129787000E+00
  86    14 SI   -2.219871057000E+00 -4.624543027200E+00  3.130528029600E+00
  87    14 SI   -3.542870142800E+00 -3.253110116400E+00  4.510830583800E+00
  88    14 SI   -7.917047426000E-01 -5.894853900000E-01  4.722465565800E+00
  89    14 SI    5.546217830000E-01  7.548453468000E-01  6.128752888500E+00
  90    14 SI    3.281208675200E+00  3.229279075200E+00  6.050005473600E+00
  91    14 SI    4.901419494000E-01 -4.537553960400E+00  5.932458312000E+00
  92    14 SI    3.347116719400E+00 -1.942046380800E+00  5.943227902800E+00
  93    14 SI   -4.954130429400E+00  6.648787104000E-01  5.916992678700E+00
  94    14 SI   -2.167137978800E+00  3.299377773600E+00  6.034226770800E+00
  95    14 SI   -4.911106969000E+00 -4.586883062400E+00  5.844151841700E+00
  96    14 SI   -2.246575273800E+00 -1.900863657600E+00  6.005424376800E+00
  97    14 SI    1.790422522400E+00  4.597797322800E+00  7.311508588200E+00
  98    14 SI    4.747527034000E+00  1.934833113600E+00  7.331920719600E+00
  99    14 SI    6.008448780000E-01  3.443433429600E+00  8.995092002700E+00
 100    14 SI    3.464993915200E+00  7.265584356000E-01  8.880216367500E+00
 101    14 SI    2.146489817800E+00  2.147509167600E+00  1.025813959350E+01
 102    14 SI    4.670558661200E+00  4.625664858000E+00  9.906729515400E+00
 103    14 SI    2.083626408600E+00 -5.124774720000E-01  7.372285813800E+00
 104    14 SI    4.768097695200E+00 -3.324362098800E+00  7.176346049400E+00
 105    14 SI    7.315648978000E-01 -1.830513333600E+00  8.722992864600E+00
 106    14 SI    3.325128919000E+00 -4.585813653600E+00  8.482346775600E+00
 107    14 SI    2.601956142400E+00 -2.797332279600E+00  9.767079647100E+00
 108    14 SI    4.529187954600E+00 -1.134422564400E+00  1.007372078670E+01
 109    14 SI   -3.596057148400E+00  4.658218920000E+00  7.285315106700E+00
 110    14 SI   -7.994990082000E-01  2.083271248800E+00  7.576866296400E+00
 111    14 SI   -4.965423257400E+00  3.315869734800E+00  8.585471868900E+00
 112    14 SI   -2.149180168000E+00  5.913096756000E-01  8.859136354500E+00
 113    14 SI   -4.367169087000E+00  2.271361384800E+00 -1.029612535950E+01
 114    14 SI   -8.902402026000E-01  4.939861357200E+00  1.028053449840E+01
 115    14 SI   -3.618277448200E+00 -5.587975512000E-01  7.393971094500E+00
 116    14 SI   -8.104818370000E-01 -3.165376657200E+00  7.394910303000E+00
 117    14 SI   -5.012520993000E+00 -1.994552256000E+00  8.581276737600E+00
 118    14 SI   -2.254734895600E+00 -4.582280410800E+00  8.693668688100E+00
 119    14 SI   -3.737892853800E+00 -3.320000588400E+00  1.000981286610E+01
 120    14 SI   -7.729497910000E-01 -7.885212396000E-01  1.020633702690E+01
 121    14 SI    3.836306528400E+00  3.017672430000E+00 -8.494201674000E+00
 122    14 SI    3.632747768000E-01 -4.040687760000E-01 -7.267303174800E+00
 123    14 SI    2.012924448200E+00 -2.687256564000E+00 -8.249819622300E+00
 124    14 SI   -4.512093713000E+00  4.370694734400E+00 -9.005235454500E+00
 125    14 SI   -1.887064773000E+00  1.457730007200E+00 -8.911648545300E+00
 126    14 SI   -1.418047054800E+00  4.856678127600E+00 -7.567829023500E+00
 127    14 SI    3.217326697200E+00  9.487333560000E-02 -7.483822041000E+00
 128    14 SI   -4.606322398400E+00 -2.391365827200E+00 -8.624939497200E+00
 129    14 SI   -1.201335471200E+00 -2.712628812000E+00 -9.281028812700E+00
 130    14 SI    2.479849671800E+00  1.572922110000E+00 -2.383460717400E+00
 131    14 SI   -1.116196405200E+00  4.233474907200E+00 -1.641235546800E+00
 132    14 SI    3.969794398200E+00 -5.705191104000E-01 -4.458902789400E+00
 133    14 SI   -2.459489367200E+00 -1.597088652000E-01 -5.885873570400E+00
 134    14 SI    1.319113024400E+00 -4.673589050400E+00 -4.067065003200E+00
 135    14 SI   -1.369565394200E+00 -3.101400848400E+00 -6.074654478900E+00
 136    14 SI   -5.262812132800E+00 -2.957617786800E+00 -3.793233547200E+00
 137    14 SI    3.156002212600E+00 -3.787604828400E+00 -1.904568738900E+00
 138    14 SI   -2.078577850200E+00  1.589539884000E+00 -3.274268672700E+00
 139    14 SI    4.368851939800E+00  3.964854094800E+00 -1.780948029000E+00
 140    14 SI    4.586216736000E-01  2.934845670000E+00 -4.293915162900E+00
 141    14 SI    1.165187350200E+00 -1.687694836800E+00 -4.439325510000E+00
 142    14 SI   -4.914494817400E+00  2.337591339600E+00 -1.973339672400E+00
 143    14 SI   -4.245771186000E+00  3.693213775200E+00 -6.159412828200E+00
 144    14 SI   -8.491763800000E-03 -1.980922536000E-01 -1.820436528600E+00
 145    14 SI    1.814879245000E+00  4.965191667600E+00 -6.911030083800E+00
 146    14 SI    4.806139025600E+00 -1.352267427600E+00 -1.611702657300E+00
 147    14 SI    4.258049368600E+00  4.921954002000E+00 -4.730146204200E+00
 148    14 SI   -2.807828825400E+00 -4.978181839200E+00 -4.090503473100E+00

 *******************************************************************************
 LOCAL ATOMIC FUNCTIONS BASIS SET
 *******************************************************************************
   ATOM  X(AU)  Y(AU)  Z(AU)    NO. TYPE  EXPONENT  S COEF   P COEF   D/F/G COEF
 *******************************************************************************
   1 O   5.204  7.327-14.373
                                  1 S  
                                         8.020E+03 1.080E-03 0.000E+00 0.000E+00
                                         1.338E+03 8.040E-03 0.000E+00 0.000E+00
                                         2.554E+02 5.324E-02 0.000E+00 0.000E+00
                                         6.922E+01 1.681E-01 0.000E+00 0.000E+00
                                         2.390E+01 3.581E-01 0.000E+00 0.000E+00
                                         9.264E+00 3.855E-01 0.000E+00 0.000E+00
                                         3.851E+00 1.468E-01 0.000E+00 0.000E+00
                                         1.212E+00 7.280E-02 0.000E+00 0.000E+00
                             2-   5 SP 
                                         4.943E+01-8.830E-03 9.580E-03 0.000E+00
                                         1.047E+01-9.150E-02 6.960E-02 0.000E+00
                                         3.235E+00-4.020E-02 2.065E-01 0.000E+00
                                         1.217E+00 3.790E-01 3.470E-01 0.000E+00
                             6-   9 SP 
                                         4.763E-01 1.000E+00 1.000E+00 0.000E+00
                            10-  13 SP 
                                         1.900E-01 1.000E+00 1.000E+00 0.000E+00
   2 O   9.803  7.269-15.540
   3 O  -2.962  8.259-17.316
   4 O   3.085  0.917-14.560
   5 O  -8.863 -7.336-18.012
   6 O  -2.863 -6.946-14.622
   7 O   6.642  6.377-19.141
   8 O  -5.131  2.799 19.450
   9 O  -2.064  0.455-12.960
  10 O  -1.255  0.687-17.725
  11 O  -8.610 -4.655-13.405
  12 O   5.943 -2.846-15.236
  13 O   4.062 -6.591-18.215
  14 O  -0.961 -7.514-19.021
  15 O   0.925 -3.539-15.564
  16 O  -5.618 -4.362-18.052
  17 O -10.455 -2.324-17.757
  18 O   7.463  2.640-15.526
  19 O   5.230 -3.162 -8.071
  20 O   2.586  4.897 -5.517
  21 O   3.882 -7.380-13.554
  22 O  -1.587  8.929 -0.042
  23 O   6.457  1.433 -6.541
  24 O  -7.411  4.209-12.445
  25 O   3.276 -8.204 -4.806
  26 O  -4.782  0.911 -8.273
  27 O   7.429  7.791 -6.353
  28 O   4.809  9.770 -9.897
  29 O   1.527 -2.079-11.087
  30 O  -1.140 -2.094 -1.164
  31 O  -3.370 -8.478-10.047
  32 O   8.901 -7.661 -8.265
  33 O  -4.053 -3.359-10.513
  34 O  -9.587  2.315 -1.489
  35 O   9.938 -2.085 -0.014
  36 O  10.154 -2.800 -8.392
  37 O -10.102 -5.082 -4.078
  38 O  -2.099  1.731 -4.034
  39 O  -9.899  7.633 -1.837
  40 O  -6.337  4.128 -4.652
  41 O   0.793 -1.787 -6.055
  42 O   2.800  1.064 -2.489
  43 O   7.034 -9.674 -2.115
  44 O   0.585  8.716 -7.968
  45 O   2.155  4.389-10.469
  46 O  -2.178  5.055 -7.591
  47 O   7.377 -0.020-11.354
  48 O   9.837  7.804-10.823
  49 O   0.464  8.900-13.656
  50 O  -6.645  7.932 -8.943
  51 O  -7.246 -6.983 -7.568
  52 O  -3.966 -9.889 -4.974
  53 O   1.311 -6.162 -8.618
  54 O  -7.029  8.979-14.144
  55 O   5.911 -4.628 -1.682
  56 O   6.207  5.010 -2.293
  57 SI  2.430  1.934  1.363
                                729 S  
                                         8.765E+04 2.370E-04 0.000E+00 0.000E+00
                                         1.285E+04 1.920E-03 0.000E+00 0.000E+00
                                         2.786E+03 1.090E-02 0.000E+00 0.000E+00
                                         7.280E+02 4.960E-02 0.000E+00 0.000E+00
                                         2.195E+02 1.668E-01 0.000E+00 0.000E+00
                                         7.590E+01 3.630E-01 0.000E+00 0.000E+00
                                         2.946E+01 4.051E-01 0.000E+00 0.000E+00
                                         1.199E+01 1.504E-01 0.000E+00 0.000E+00
                           730- 733 SP 
                                         1.660E+02-8.840E-03 9.090E-03 0.000E+00
                                         3.937E+01-8.590E-02 6.010E-02 0.000E+00
                                         1.271E+01-7.120E-02 1.952E-01 0.000E+00
                                         4.718E+00 4.147E-01 3.384E-01 0.000E+00
                                         1.848E+00 6.168E-01 3.006E-01 0.000E+00
                                         7.365E-01 1.154E-01 6.480E-02 0.000E+00
                           734- 737 SP 
                                         4.175E+00-1.990E-02-8.700E-03 0.000E+00
                                         1.447E+00-1.864E-01-4.380E-03 0.000E+00
                                         5.023E-01 9.670E-02 2.207E-01 0.000E+00
                           738- 741 SP 
                                         3.220E-01 1.000E+00 1.000E+00 0.000E+00
                           742- 745 SP 
                                         1.300E-01 1.000E+00 1.000E+00 0.000E+00
                           746- 750 D  
                                         6.000E-01 0.000E+00 0.000E+00 1.000E+00
  58 SI  5.509  5.106  1.345
  59 SI  3.816  8.579  3.619
  60 SI  8.864  3.427  3.710
  61 SI  1.138  6.112  6.108
  62 SI  6.280  1.074  6.376
  63 SI  3.630  3.676  8.810
  64 SI  8.989  8.436  8.824
  65 SI  1.967 -7.920  1.506
  66 SI  5.449 -5.066  1.627
  67 SI  3.844 -1.476  3.698
  68 SI  9.165 -6.803  3.341
  69 SI  0.999 -3.658  6.288
  70 SI  6.508 -8.869  6.242
  71 SI  3.739 -6.244  8.664
  72 SI  9.134 -1.425  8.603
  73 SI -9.789  0.615  1.102
  74 SI -3.607  6.407  0.893
  75 SI -6.732  8.489  3.327
  76 SI -1.240  3.583  3.318
  77 SI -9.301  6.095  6.053
  78 SI -3.944  1.288  6.079
  79 SI -6.636  3.720  8.695
  80 SI -1.600  8.657  8.607
  81 SI -8.821 -8.817  0.303
  82 SI -3.532 -3.525  0.592
  83 SI -6.394 -1.155  3.307
  84 SI -1.457 -6.122  3.553
  85 SI -9.252 -3.840  5.719
  86 SI -4.195 -8.739  5.916
  87 SI -6.695 -6.147  8.524
  88 SI -1.496 -1.114  8.924
  89 SI  1.048  1.426 11.582
  90 SI  6.201  6.102 11.433
  91 SI  0.926 -8.575 11.211
  92 SI  6.325 -3.670 11.231
  93 SI -9.362  1.256 11.181
  94 SI -4.095  6.235 11.403
  95 SI -9.281 -8.668 11.044
  96 SI -4.245 -3.592 11.349
  97 SI  3.383  8.689 13.817
  98 SI  8.972  3.656 13.855
  99 SI  1.135  6.507 16.998
 100 SI  6.548  1.373 16.781
 101 SI  4.056  4.058 19.385
 102 SI  8.826  8.741 18.721
 103 SI  3.937 -0.968 13.932
 104 SI  9.010 -6.282 13.561
 105 SI  1.382 -3.459 16.484
 106 SI  6.284 -8.666 16.029
 107 SI  4.917 -5.286 18.457
 108 SI  8.559 -2.144 19.037
 109 SI -6.796  8.803 13.767
 110 SI -1.511  3.937 14.318
 111 SI -9.383  6.266 16.224
 112 SI -4.061  1.117 16.741
 113 SI -8.253  4.292-19.457
 114 SI -1.682  9.335 19.427
 115 SI -6.838 -1.056 13.973
 116 SI -1.532 -5.982 13.974
 117 SI -9.472 -3.769 16.216
 118 SI -4.261 -8.659 16.429
 119 SI -7.064 -6.274 18.916
 120 SI -1.461 -1.490 19.287
 121 SI  7.250  5.703-16.052
 122 SI  0.686 -0.764-13.733
 123 SI  3.804 -5.078-15.590
 124 SI -8.527  8.259-17.017
 125 SI -3.566  2.755-16.841
 126 SI -2.680  9.178-14.301
 127 SI  6.080  0.179-14.142
 128 SI -8.705 -4.519-16.299
 129 SI -2.270 -5.126-17.539
 130 SI  4.686  2.972 -4.504
 131 SI -2.109  8.000 -3.101
 132 SI  7.502 -1.078 -8.426
 133 SI -4.648 -0.302-11.123
 134 SI  2.493 -8.832 -7.686
 135 SI -2.588 -5.861-11.479
 136 SI -9.945 -5.589 -7.168
 137 SI  5.964 -7.158 -3.599
 138 SI -3.928  3.004 -6.187
 139 SI  8.256  7.492 -3.366
 140 SI  0.867  5.546 -8.114
 141 SI  2.202 -3.189 -8.389
 142 SI -9.287  4.417 -3.729
 143 SI -8.023  6.979-11.640
 144 SI -0.016 -0.374 -3.440
 145 SI  3.430  9.383-13.060
 146 SI  9.082 -2.555 -3.046
 147 SI  8.047  9.301 -8.939
 148 SI -5.306 -9.407 -7.730
 INFORMATION **** TOLINTEG **** COULOMB AND EXCHANGE SERIES TOLERANCES MODIFIED
 INFORMATION **** READM2 **** FULL DIRECT SCF (MONO AND BIEL INT) SELECTED
 INFORMATION **** SMEAR **** FERMI SMEARING ACTIVE
 FERMI SMEARING - TEMPERATURE SMEARING OF FERMI SURFACE  0.1000E-12
 INFORMATION **** MAXCYCLE **** MAX NUMBER OF SCF CYCLES SET TO         250

 MODIFIED BROYDEN MIXING OF THE FOCK MATRIX
 WO PARAMETER(D.D. Johnson, PRB38, 12807,(1988)             1.0000E-04
 % OF FOCK/KS MATRICES MIXING WHEN BROYDEN METHOD IS ON             90
 NUMBER OF SCF ITERATIONS AFTER WHICH BROYDEN METHOD IS ACTIVE      40
 INFORMATION **** TOLDEE **** SCF TOL ON TOTAL ENERGY SET TO           7
 *******************************************************************************
 N. OF ATOMS PER CELL      148  COULOMB OVERLAP TOL         (T1) 10** -8
 NUMBER OF SHELLS          776  COULOMB PENETRATION TOL     (T2) 10** -8
 NUMBER OF AO             2752  EXCHANGE OVERLAP TOL        (T3) 10** -8
 N. OF ELECTRONS PER CELL 1736  EXCHANGE PSEUDO OVP (F(G))  (T4) 10** -8
 CORE ELECTRONS PER CELL  1032  EXCHANGE PSEUDO OVP (P(G))  (T5) 10**-16
 N. OF SYMMETRY OPERATORS    1  POLE ORDER IN MONO ZONE                4
 *******************************************************************************
 TYPE OF CALCULATION :  UNRESTRICTED OPEN SHELL
 KOHN-SHAM HAMILTONIAN

 (EXCHANGE)[CORRELATION] FUNCTIONAL:(BECKE)[LEE-YANG-PARR]

 NON-LOCAL WEIGHTING FACTOR (EXCHANGE) =           0.9000
 NON-LOCAL WEIGHTING FACTOR [CORRELATION] =        0.8100

 HYBRID EXCHANGE - PERCENTAGE OF FOCK EXCHANGE     5.0000

 SPIN POLARIZED DFT SELECTED

 CAPPA:IS1  2;IS2  2;IS3  2; K PTS MONK NET    8; SYMMOPS: K SPACE  2;G SPACE  1

 *******************************************************************************
 MAX NUMBER OF SCF CYCLES     250  CONVERGENCE ON DELTAP        10**-17
 WEIGHT OF F(I) IN F(I+1)      95% CONVERGENCE ON ENERGY        10**- 7
 SHRINK. FACT.(MONKH.)    2  2  2  NUMBER OF K POINTS IN THE IBZ      8
 SHRINKING FACTOR(GILAT NET)    2  NUMBER OF K POINTS(GILAT NET)      8
 *******************************************************************************
 *** K POINTS COORDINATES (OBLIQUE COORDINATES IN UNITS OF IS =  2)
   1-R(  0  0  0)   2-R(  1  0  0)   3-R(  0  1  0)   4-R(  1  1  0)
   5-R(  0  0  1)   6-R(  1  0  1)   7-R(  0  1  1)   8-R(  1  1  1)

 DIRECT LATTICE VECTORS COMPON. (A.U.)     RECIP. LATTICE VECTORS COMPON. (A.U.) 
        X            Y            Z              X            Y            Z
   20.9219139    0.0000000    0.0000000      0.3003160    0.0000000    0.0000000
    0.0000000   19.8126447    0.0000000      0.0000000    0.3171301    0.0000000
    0.0000000    0.0000000   39.4410411      0.0000000    0.0000000    0.1593058

 DISK SPACE FOR EIGENVECTORS (FTN 10)   60588032 REALS

 SYMMETRY ADAPTION OF THE BLOCH FUNCTIONS DISABLED
 TTTTTTTTTTTTTTTTTTTTTTTTTTTTTT gordsh1     TELAPSE        4.40 TCPU        0.58

 DIMENSIONS  P(G)= 6481856 F(G)= 1160186 P(G),F(G) (IRR) 3249384
 MAX G-VECTOR INDEX FOR 1- AND 2-ELECTRON INTEGRALS  43

 TTTTTTTTTTTTTTTTTTTTTTTTTTTTTT INPUT       TELAPSE        4.68 TCPU        0.86

 NEIGHBORS OF THE NON-EQUIVALENT ATOMS

 N = NUMBER OF NEIGHBORS AT DISTANCE R
    ATOM  N     R/ANG      R/AU   NEIGHBORS (ATOM LABELS AND CELL INDICES)
   1 O    1     1.5962     3.0165 145 SI   0 0 0
   1 O    1     1.6431     3.1051 121 SI   0 0 0
   1 O    1     2.5109     4.7450   2 O    0 0 0
   1 O    1     2.6700     5.0456  49 O    0 0 0
   1 O    1     2.6833     5.0708   7 O    0 0 0
   1 O    1     2.7065     5.1146  28 O    0 0 0

   2 O    1     1.6079     3.0385 121 SI   0 0 0
   2 O    1     1.6638     3.1440 124 SI   1 0 0
   2 O    1     2.4596     4.6479  54 O    1 0 0
   2 O    1     2.5109     4.7450   1 O    0 0 0
   2 O    1     2.5122     4.7473  48 O    0 0 0
   2 O    1     2.5790     4.8735   7 O    0 0 0

   3 O    1     1.6744     3.1642 126 SI   0 0 0
   3 O    1     1.6797     3.1742 114 SI   0 0-1
   3 O    1     2.5505     4.8197  14 O    0 1 0
   3 O    1     2.6745     5.0542  49 O    0 0 0
   3 O    1     2.7560     5.2081  54 O    0 0 0
   3 O    1     2.8250     5.3385   6 O    0 1 0

   4 O    1     1.6104     3.0432 122 SI   0 0 0
   4 O    1     1.6470     3.1125 127 SI   0 0 0
   4 O    1     2.5260     4.7734  12 O    0 0 0
   4 O    1     2.5416     4.8030  18 O    0 0 0
   4 O    1     2.5632     4.8438  29 O    0 0 0
   4 O    1     2.6736     5.0524  15 O    0 0 0

   5 O    1     1.7297     3.2687 119 SI   0 0-1
   5 O    1     1.7467     3.3009 128 SI   0 0 0
   5 O    1     2.2995     4.3455 124 SI   0-1 0
   5 O    1     2.3291     4.4013  16 O    0 0 0
   5 O    1     2.7864     5.2655  17 O    0 0 0
   5 O    1     2.8239     5.3364  11 O    0 0 0

   6 O    1     1.7655     3.3363 135 SI   0 0 0
   6 O    1     1.8459     3.4882 129 SI   0 0 0
   6 O    1     1.9619     3.7075 126 SI   0-1 0
   6 O    1     2.5535     4.8253  14 O    0 0 0
   6 O    1     2.5672     4.8513  31 O    0 0 0
   6 O    1     2.6996     5.1015  16 O    0 0 0

   7 O    1     1.7041     3.2203 121 SI   0 0 0
   7 O    1     1.8970     3.5847 102 SI   0 0-1
   7 O    1     1.9007     3.5918 101 SI   0 0-1
   7 O    1     2.5790     4.8735   2 O    0 0 0
   7 O    1     2.6833     5.0708   1 O    0 0 0
   7 O    1     2.7858     5.2644  18 O    0 0 0

   8 O    1     1.7795     3.3628 112 SI   0 0 0
   8 O    1     1.8529     3.5014 113 SI   0 0 1
   8 O    1     1.8617     3.5180 125 SI   0 0 1
   8 O    1     2.6257     4.9618  10 O    0 0 1
   8 O    1     2.9885     5.6474 120 SI   0 0 0
   8 O    1     3.3681     6.3647 111 SI   0 0 0

   9 O    1     1.6438     3.1064 122 SI   0 0 0
   9 O    1     1.7248     3.2593 133 SI   0 0 0
   9 O    1     2.5159     4.7543 125 SI   0 0 0
   9 O    1     2.5283     4.7779  29 O    0 0 0
   9 O    1     2.5608     4.8393  10 O    0 0 0
   9 O    1     2.6185     4.9483  33 O    0 0 0

  10 O    1     1.7066     3.2250 125 SI   0 0 0
  10 O    1     1.7293     3.2679 120 SI   0 0-1
  10 O    1     2.4713     4.6701 122 SI   0 0 0
  10 O    1     2.5608     4.8393   9 O    0 0 0
  10 O    1     2.6257     4.9618   8 O    0 0-1
  10 O    1     2.7639     5.2230  15 O    0 0 0

  11 O    1     1.5340     2.8989 128 SI   0 0 0
  11 O    1     2.7893     5.2710  17 O    0 0 0
  11 O    1     2.8239     5.3364   5 O    0 0 0
  11 O    1     2.9287     5.5344  16 O    0 0 0
  11 O    1     2.9370     5.5502  33 O    0 0 0
  11 O    1     3.0501     5.7638  36 O   -1 0 0

  12 O    1     1.6468     3.1121 123 SI   0 0 0
  12 O    1     1.7039     3.2199 127 SI   0 0 0
  12 O    1     2.5260     4.7734   4 O    0 0 0
  12 O    1     2.6520     5.0116  47 O    0 0 0
  12 O    1     2.6863     5.0764  15 O    0 0 0
  12 O    1     2.7210     5.1420  13 O    0 0 0

  13 O    1     1.6094     3.0413 123 SI   0 0 0
  13 O    1     1.6817     3.1779 107 SI   0 0-1
  13 O    1     2.5033     4.7306  21 O    0 0 0
  13 O    1     2.7081     5.1176  15 O    0 0 0
  13 O    1     2.7210     5.1420  12 O    0 0 0
  13 O    1     2.7364     5.1710  14 O    0 0 0

  14 O    1     1.6407     3.1004 129 SI   0 0 0
  14 O    1     1.6973     3.2074 114 SI   0-1-1
  14 O    1     2.5505     4.8197   3 O    0-1 0
  14 O    1     2.5535     4.8253   6 O    0 0 0
  14 O    1     2.7364     5.1710  13 O    0 0 0
  14 O    1     2.8067     5.3039 118 SI   0 0-1

  15 O    1     1.7276     3.2646 123 SI   0 0 0
  15 O    1     1.7639     3.3333 122 SI   0 0 0
  15 O    1     2.1578     4.0777 129 SI   0 0 0
  15 O    1     2.5121     4.7472  29 O    0 0 0
  15 O    1     2.6736     5.0524   4 O    0 0 0
  15 O    1     2.6863     5.0764  12 O    0 0 0

  16 O    1     1.8225     3.4439 119 SI   0 0-1
  16 O    1     1.8374     3.4722 129 SI   0 0 0
  16 O    1     1.8801     3.5529 128 SI   0 0 0
  16 O    1     2.3291     4.4013   5 O    0 0 0
  16 O    1     2.6996     5.1015   6 O    0 0 0
  16 O    1     2.7818     5.2569  17 O    0 0 0

  17 O    1     1.6741     3.1636 128 SI   0 0 0
  17 O    1     1.7295     3.2683 108 SI  -1 0-1
  17 O    1     2.7543     5.2049  12 O   -1 0 0
  17 O    1     2.7818     5.2569  16 O    0 0 0
  17 O    1     2.7864     5.2655   5 O    0 0 0
  17 O    1     2.7893     5.2710  11 O    0 0 0

  18 O    1     1.6483     3.1148 121 SI   0 0 0
  18 O    1     1.6635     3.1436 127 SI   0 0 0
  18 O    1     2.5416     4.8030   4 O    0 0 0
  18 O    1     2.6184     4.9480  47 O    0 0 0
  18 O    1     2.7445     5.1863   2 O    0 0 0
  18 O    1     2.7858     5.2644   7 O    0 0 0

  19 O    1     1.6113     3.0450 141 SI   0 0 0
  19 O    1     1.6422     3.1034 132 SI   0 0 0
  19 O    1     2.5915     4.8972  29 O    0 0 0
  19 O    1     2.6180     4.9473  36 O    0 0 0
  19 O    1     2.6279     4.9660  53 O    0 0 0
  19 O    1     2.6438     4.9961  23 O    0 0 0

  20 O    1     1.5999     3.0234 130 SI   0 0 0
  20 O    1     1.6839     3.1821 140 SI   0 0 0
  20 O    1     2.5659     4.8489  56 O    0 0 0
  20 O    1     2.5873     4.8892  42 O    0 0 0
  20 O    1     2.6247     4.9600  44 O    0 0 0
  20 O    1     2.6445     4.9975  45 O    0 0 0

  21 O    1     1.6264     3.0735 123 SI   0 0 0
  21 O    1     1.6525     3.1228 145 SI   0-1 0
  21 O    1     2.4439     4.6183  28 O    0-1 0
  21 O    1     2.5033     4.7306  13 O    0 0 0
  21 O    1     2.6018     4.9167  49 O    0-1 0
  21 O    1     2.7768     5.2474  15 O    0 0 0

  22 O    1     1.7142     3.2394 131 SI   0 0 0
  22 O    1     1.7800     3.3638  74 SI   0 0 0
  22 O    1     2.5826     4.8805  65 SI   0 1 0
  22 O    1     2.9449     5.5651  52 O    0 1 0
  22 O    1     3.1583     5.9683  84 SI   0 1 0
  22 O    1     3.2628     6.1657  75 SI   0 0 0

  23 O    1     1.6441     3.1069 130 SI   0 0 0
  23 O    1     1.7512     3.3093 132 SI   0 0 0
  23 O    1     2.6438     4.9961  19 O    0 0 0
  23 O    1     2.7048     5.1114  47 O    0 0 0
  23 O    1     2.8019     5.2948  20 O    0 0 0
  23 O    1     2.8944     5.4695  42 O    0 0 0

  24 O    1     1.5609     2.9496 143 SI   0 0 0
  24 O    1     2.6872     5.0780  54 O    0 0 0
  24 O    1     2.7352     5.1687  50 O    0 0 0
  24 O    1     2.8521     5.3897  48 O   -1 0 0
  24 O    1     2.8854     5.4526 133 SI   0 0 0
  24 O    1     3.0256     5.7175   2 O   -1 0 0

  25 O    1     1.6138     3.0497 134 SI   0 0 0
  25 O    1     1.6544     3.1264 137 SI   0 0 0
  25 O    1     2.5135     4.7497  53 O    0 0 0
  25 O    1     2.5663     4.8497  43 O    0 0 0
  25 O    1     2.6780     5.0606  44 O    0-1 0
  25 O    1     2.8735     5.4302  55 O    0 0 0

  26 O    1     1.6275     3.0756 138 SI   0 0 0
  26 O    1     1.6403     3.0997 133 SI   0 0 0
  26 O    1     2.5805     4.8764  33 O    0 0 0
  26 O    1     2.6152     4.9420  46 O    0 0 0
  26 O    1     2.6901     5.0836  38 O    0 0 0
  26 O    1     2.6920     5.0872  40 O    0 0 0

  27 O    1     1.6181     3.0577 147 SI   0 0 0
  27 O    1     1.6477     3.1137 139 SI   0 0 0
  27 O    1     2.5568     4.8317  28 O    0 0 0
  27 O    1     2.5722     4.8608  43 O    0 1 0
  27 O    1     2.6375     4.9842  32 O    0 1 0
  27 O    1     2.6828     5.0697  56 O    0 0 0

  28 O    1     1.8038     3.4088 147 SI   0 0 0
  28 O    1     1.8116     3.4234 134 SI   0 1 0
  28 O    1     1.8376     3.4725 145 SI   0 0 0
  28 O    1     2.4439     4.6183  21 O    0 1 0
  28 O    1     2.5199     4.7619  44 O    0 0 0
  28 O    1     2.5568     4.8317  27 O    0 0 0

  29 O    1     1.5847     2.9947 141 SI   0 0 0
  29 O    1     1.6257     3.0721 122 SI   0 0 0
  29 O    1     2.5121     4.7472  15 O    0 0 0
  29 O    1     2.5280     4.7772  53 O    0 0 0
  29 O    1     2.5283     4.7779   9 O    0 0 0
  29 O    1     2.5632     4.8438   4 O    0 0 0

  30 O    1     1.6223     3.0657 144 SI   0 0 0
  30 O    1     1.7435     3.2948  82 SI   0 0 0
  30 O    1     2.5806     4.8766  38 O    0 0 0
  30 O    1     2.7625     5.2204  42 O    0 0 0
  30 O    1     2.7878     5.2681  41 O    0 0 0
  30 O    1     3.1466     5.9462  57 SI   0 0 0

  31 O    1     1.6320     3.0840 135 SI   0 0 0
  31 O    1     1.6720     3.1597 148 SI   0 0 0
  31 O    1     2.5502     4.8191 126 SI   0-1 0
  31 O    1     2.5604     4.8384  51 O    0 0 0
  31 O    1     2.5668     4.8506  50 O    0-1 0
  31 O    1     2.5672     4.8513   6 O    0 0 0

  32 O    1     1.6147     3.0514 147 SI   0-1 0
  32 O    1     1.6568     3.1309 136 SI   1 0 0
  32 O    1     2.5786     4.8728  51 O    1 0 0
  32 O    1     2.6375     4.9842  27 O    0-1 0
  32 O    1     2.6502     5.0081  28 O    0-1 0
  32 O    1     2.6568     5.0207  36 O    0 0 0

  33 O    1     1.6172     3.0561 135 SI   0 0 0
  33 O    1     1.6792     3.1732 133 SI   0 0 0
  33 O    1     2.5805     4.8764  26 O    0 0 0
  33 O    1     2.6185     4.9483   9 O    0 0 0
  33 O    1     2.7441     5.1857  31 O    0 0 0
  33 O    1     2.9370     5.5502  11 O    0 0 0

  34 O    1     1.6336     3.0870 142 SI   0 0 0
  34 O    1     1.6430     3.1048  73 SI   0 0 0
  34 O    1     2.5644     4.8460  35 O   -1 0 0
  34 O    1     2.5846     4.8842  40 O    0 0 0
  34 O    1     2.8251     5.3387  39 O    0 0 0
  34 O    1     2.9565     5.5870 146 SI  -1 0 0

  35 O    1     1.6703     3.1564  73 SI   1 0 0
  35 O    1     1.6857     3.1854 146 SI   0 0 0
  35 O    1     2.5644     4.8460  34 O    1 0 0
  35 O    1     2.6705     5.0464  55 O    0 0 0
  35 O    1     2.7128     5.1265  37 O    1 0 0
  35 O    1     2.9809     5.6331  66 SI   0 0 0

  36 O    1     1.6694     3.1547 136 SI   1 0 0
  36 O    1     1.6734     3.1623 132 SI   0 0 0
  36 O    1     2.6040     4.9208  47 O    0 0 0
  36 O    1     2.6064     4.9254  37 O    1 0 0
  36 O    1     2.6180     4.9473  19 O    0 0 0
  36 O    1     2.6568     5.0207  32 O    0 0 0

  37 O    1     1.6591     3.1353 136 SI   0 0 0
  37 O    1     1.7122     3.2355 146 SI  -1 0 0
  37 O    1     2.5895     4.8934  51 O    0 0 0
  37 O    1     2.6064     4.9254  36 O   -1 0 0
  37 O    1     2.7128     5.1265  35 O   -1 0 0
  37 O    1     2.7933     5.2785  32 O   -1 0 0

  38 O    1     1.5982     3.0202 144 SI   0 0 0
  38 O    1     1.6400     3.0991 138 SI   0 0 0
  38 O    1     2.5768     4.8695  46 O    0 0 0
  38 O    1     2.5806     4.8766  30 O    0 0 0
  38 O    1     2.5973     4.9081  40 O    0 0 0
  38 O    1     2.6364     4.9821  41 O    0 0 0

  39 O    1     1.6742     3.1637 139 SI  -1 0 0
  39 O    1     2.0006     3.7806 142 SI   0 0 0
  39 O    1     2.1851     4.1292  81 SI   0 1 0
  39 O    1     2.4971     4.7187  43 O   -1 1 0
  39 O    1     2.8251     5.3387  34 O    0 0 0
  39 O    1     2.9117     5.5023  56 O   -1 0 0

  40 O    1     1.6245     3.0700 138 SI   0 0 0
  40 O    1     1.6429     3.1046 142 SI   0 0 0
  40 O    1     2.5846     4.8842  34 O    0 0 0
  40 O    1     2.5973     4.9081  38 O    0 0 0
  40 O    1     2.6920     5.0872  26 O    0 0 0
  40 O    1     2.7394     5.1768  46 O    0 0 0

  41 O    1     1.6223     3.0657 141 SI   0 0 0
  41 O    1     1.6301     3.0804 144 SI   0 0 0
  41 O    1     2.6364     4.9821  38 O    0 0 0
  41 O    1     2.6390     4.9871  42 O    0 0 0
  41 O    1     2.6797     5.0639  19 O    0 0 0
  41 O    1     2.6955     5.0938  29 O    0 0 0

  42 O    1     1.7475     3.3023 144 SI   0 0 0
  42 O    1     1.7755     3.3552 130 SI   0 0 0
  42 O    1     2.0991     3.9666  57 SI   0 0 0
  42 O    1     2.5873     4.8892  20 O    0 0 0
  42 O    1     2.6390     4.9871  41 O    0 0 0
  42 O    1     2.7411     5.1800  38 O    0 0 0

  43 O    1     1.6463     3.1110 137 SI   0 0 0
  43 O    1     1.6784     3.1717 139 SI   0-1 0
  43 O    1     2.4971     4.7187  39 O    1-1 0
  43 O    1     2.5663     4.8497  25 O    0 0 0
  43 O    1     2.5722     4.8608  27 O    0-1 0
  43 O    1     2.7449     5.1870  55 O    0 0 0

  44 O    1     1.5741     2.9747 134 SI   0 1 0
  44 O    1     1.6861     3.1862 140 SI   0 0 0
  44 O    1     2.4350     4.6015  46 O    0 0 0
  44 O    1     2.5199     4.7619  28 O    0 0 0
  44 O    1     2.6247     4.9600  20 O    0 0 0
  44 O    1     2.6613     5.0291  53 O    0 1 0

  45 O    1     1.5470     2.9233 140 SI   0 0 0
  45 O    1     2.6445     4.9975  20 O    0 0 0
  45 O    1     2.7727     5.2396  44 O    0 0 0
  45 O    1     2.7751     5.2443  46 O    0 0 0
  45 O    1     2.8816     5.4454   4 O    0 0 0
  45 O    1     3.0475     5.7589   1 O    0 0 0

  46 O    1     1.6088     3.0402 138 SI   0 0 0
  46 O    1     1.6551     3.1276 140 SI   0 0 0
  46 O    1     2.4350     4.6015  44 O    0 0 0
  46 O    1     2.5768     4.8695  38 O    0 0 0
  46 O    1     2.6152     4.9420  26 O    0 0 0
  46 O    1     2.7394     5.1768  40 O    0 0 0

  47 O    1     1.6308     3.0818 127 SI   0 0 0
  47 O    1     1.6489     3.1159 132 SI   0 0 0
  47 O    1     2.6040     4.9208  36 O    0 0 0
  47 O    1     2.6184     4.9480  18 O    0 0 0
  47 O    1     2.6520     5.0116  12 O    0 0 0
  47 O    1     2.6599     5.0265  19 O    0 0 0

  48 O    1     1.5876     3.0002 147 SI   0 0 0
  48 O    1     1.7324     3.2737 143 SI   1 0 0
  48 O    1     2.5122     4.7473   2 O    0 0 0
  48 O    1     2.5520     4.8226  50 O    1 0 0
  48 O    1     2.6871     5.0780  27 O    0 0 0
  48 O    1     2.7152     5.1311  32 O    0 1 0

  49 O    1     1.6210     3.0632 145 SI   0 0 0
  49 O    1     1.7046     3.2213 126 SI   0 0 0
  49 O    1     2.6018     4.9167  21 O    0 1 0
  49 O    1     2.6700     5.0456   1 O    0 0 0
  49 O    1     2.6745     5.0542   3 O    0 0 0
  49 O    1     2.7871     5.2668   6 O    0 1 0

  50 O    1     1.6210     3.0632 148 SI   0 1 0
  50 O    1     1.6798     3.1744 143 SI   0 0 0
  50 O    1     2.5520     4.8226  48 O   -1 0 0
  50 O    1     2.5668     4.8506  31 O    0 1 0
  50 O    1     2.7108     5.1227  51 O    0 1 0
  50 O    1     2.7352     5.1687  24 O    0 0 0

  51 O    1     1.6214     3.0640 136 SI   0 0 0
  51 O    1     1.6454     3.1094 148 SI   0 0 0
  51 O    1     2.5604     4.8384  31 O    0 0 0
  51 O    1     2.5786     4.8728  32 O   -1 0 0
  51 O    1     2.5895     4.8934  37 O    0 0 0
  51 O    1     2.6948     5.0924  52 O    0 0 0

  52 O    1     1.6414     3.1019 148 SI   0 0 0
  52 O    1     1.7272     3.2639 131 SI   0-1 0
  52 O    1     2.6948     5.0924  51 O    0 0 0
  52 O    1     2.7445     5.1863  50 O    0-1 0
  52 O    1     2.8043     5.2993  31 O    0 0 0
  52 O    1     2.9449     5.5651  22 O    0-1 0

  53 O    1     1.6216     3.0645 134 SI   0 0 0
  53 O    1     1.6469     3.1123 141 SI   0 0 0
  53 O    1     2.5135     4.7497  25 O    0 0 0
  53 O    1     2.5280     4.7772  29 O    0 0 0
  53 O    1     2.5643     4.8459 135 SI   0 0 0
  53 O    1     2.6279     4.9660  19 O    0 0 0

  54 O    1     1.7566     3.3194 124 SI   0 0 0
  54 O    1     1.7755     3.3552 143 SI   0 0 0
  54 O    1     2.3056     4.3570 126 SI   0 0 0
  54 O    1     2.4596     4.6479   2 O   -1 0 0
[...]
  13.9953703  13.9816008  14.0003890  13.9843897  13.9949745  14.0038526
  14.0035204  13.9927388  14.0981472  14.0449302  13.7227732  13.7143512
  14.0523936  14.0327869  14.0450662  14.0546226  13.6913828  13.5791885
  14.0272110  14.0252687  14.1256864  13.6709509  13.6689192  13.2870773
  14.0357814  13.9957670  14.0667012  14.0850613  13.4497525  13.5677805
  12.6469583  12.7588941  12.7721146  13.1547595  13.0001519  12.8023417
  12.6714996  12.9775213  13.0163642  12.6553435  13.3545995  12.7528925
  12.8406758  12.7838244  12.8861591  12.7665065  13.1819080  12.7622602
  13.0319810  13.0826818  12.6590723  13.0392118  12.9567686  12.7123590
  12.6177125  13.3031483  12.7219866  12.6325966
 SUMMED SPIN DENSITY           2.00000000
 TOTAL ATOMIC SPINS  :
   0.0016326   0.0036042   0.0005951  -0.0007071   0.0006465   0.0091499
   0.0000961   0.0000065  -0.0002255   0.0019304   0.0145922   0.0002132
   0.0000994  -0.0001854  -0.0047925  -0.0003845   0.0005645   0.0002219
   0.0031249   0.0003904  -0.0006227  -0.0102274   0.0019419   0.0282984
   0.0201700   0.0107100   0.0003889   0.0011577  -0.0092590   0.0088136
   0.0217439   0.0238016  -0.0140288   0.0005434   0.0000517  -0.0000834
   0.0308245   0.0004119   0.0054249   0.0000397   0.0004103   0.0008051
   0.0184265   0.0006231   0.0017203   0.0010012   0.0002554   0.0017354
  -0.0023699  -0.0015763   0.0002243  -0.0001038  -0.0119541   0.0613726
  -0.0041416   0.0007500   0.0011321  -0.0164861   0.0078690  -0.0026657
  -0.0017345  -0.0021867  -0.0027564  -0.0251216  -0.6123101  -0.0368774
  -0.0102779  -0.0038165   0.0232116  -0.0082381   0.0196472  -0.0004416
  -0.0032546  -0.0117971   0.0059922  -0.0020118  -0.0007694   0.0280502
   0.0218323   0.0008225   0.0326105   0.6003963   0.0586436   0.0385358
   0.0050014  -0.0013942  -0.0035850  -0.0268077  -0.0032319   0.0007283
   0.0008140   0.0072614   0.0003432   0.0096110  -0.0051288   0.0015927
   0.0015976   0.0009158  -0.0013180  -0.0002109   0.0061204   0.0031416
  -0.0004805   0.0029228   0.0009175  -0.0005833  -0.0012671  -0.0007638
   0.0012838  -0.0015242   0.0008744   0.0007618   0.0028681   0.0097025
   0.0013520   0.0015518   0.0013972   0.0043884   0.0023535   0.0038713
   0.0034305   0.0177781  -0.0004615   0.0061500   0.0199221   0.7396431
   0.0002280  -0.0006770  -0.0038003  -0.0000066  -0.0064692  -0.0030639
   0.7734079  -0.0097244  -0.7343214   0.0047036   0.7827559   0.0123786
   0.0024252  -0.0013332   0.0018771   0.0112515   0.0088889   0.0073387
   0.0156752   0.0176542  -0.0038529  -0.0027254
 TTTTTTTTTTTTTTTTTTTTTTTTTTTTTT MOQGAD      TELAPSE    23524.93 TCPU    22957.85
 WARNING **** GENBUD **** COUL. BIPO BUFFER TOO SMALL - TO AVOID I/O SET BIPOSIZE =     1971125
 TTTTTTTTTTTTTTTTTTTTTTTTTTTTTT SHELLX      TELAPSE    23605.45 TCPU    23036.58
 TTTTTTTTTTTTTTTTTTTTTTTTTTTTTT MONMO3      TELAPSE    23614.64 TCPU    23045.76
 NUMERICALLY INTEGRATED DENSITY    869.0001014570    867.0001022215
 TTTTTTTTTTTTTTTTTTTTTTTTTTTTTT NUMDFT      TELAPSE    23620.53 TCPU    23051.64
 CYC 112 ETOT(AU) -3.084441482309E+04 DETOT -2.33E-06 tst  3.47E-08 PX  7.54E-04
 MODIFIED BROYDEN: MIX%=  90 W0=  1.000000000000E-04 W=  2.616794950790E+02
 TTTTTTTTTTTTTTTTTTTTTTTTTTTTTT FDIK        TELAPSE    23723.12 TCPU    23150.83

    ALPHA      ELECTRONS
 INSULATING STATE
 TOP OF VALENCE BANDS -    BAND    869; K    2; EIG -9.4000711E-02 AU
 TOP OF VALENCE BANDS -    BAND    869; K    1; EIG -9.4899823E-02 AU
 BOTTOM OF VIRTUAL BANDS - BAND    870; K    5; EIG -8.3990367E-02 AU
 BOTTOM OF VIRTUAL BANDS - BAND    870; K    1; EIG -8.3956346E-02 AU

    BETA       ELECTRONS
 INSULATING STATE
 TOP OF VALENCE BANDS -    BAND    867; K    6; EIG -9.4230261E-02 AU
 TOP OF VALENCE BANDS -    BAND    867; K    1; EIG -1.0687055E-01 AU
 BOTTOM OF VIRTUAL BANDS - BAND    868; K    1; EIG -8.1714870E-02 AU
 TTTTTTTTTTTTTTTTTTTTTTTTTTTTTT PDIG        TELAPSE    23726.15 TCPU    23153.85
 CHARGE NORMALIZATION FACTOR   1.00000000
 TOTAL ATOMIC CHARGES:
   8.6035455   8.7003338   8.7194413   8.4575155   8.6687260   8.8599092
   8.8009413   8.8450573   8.7427876   8.7806761   8.5572164   8.6368611
   8.5839480   8.6073942   8.7663195   8.7558077   8.6157675   8.6079202
   8.6368888   8.5507958   8.6070301   8.6439626   8.6224256   8.5733671
   8.5377520   8.6798239   8.5810315   8.8549900   8.6975853   8.6857810
   8.7518943   8.6025233   8.6032153   8.7326863   8.6952468   8.5860186
   8.5759917   8.5725505   8.6981536   8.6607177   8.6587502   8.7810367
   8.6437255   8.5831648   8.5955574   8.5978396   8.5980569   8.5955698
   8.6431780   8.6842897   8.6576056   8.6615243   8.6446820   8.7507734
   8.6902770   8.7741356  13.7816749  13.7064104  13.9530882  14.0494658
  14.0421220  14.0476950  13.9830945  13.9977094  13.8265761  13.7009382
  13.9798471  13.9980372  14.0386993  14.0674189  13.9799625  13.9890020
  13.2231414  13.7648737  14.1058436  14.0334326  13.9963697  14.0089736
  13.9996543  13.9830311  13.5831844  13.5475553  14.0847112  14.0083667
  13.9950556  13.9986471  13.9973973  14.0025712  13.9881990  13.9760592
  13.9953258  13.9816047  14.0004773  13.9843609  13.9948721  14.0038084
  14.0035020  13.9928597  14.0981281  14.0449946  13.7227870  13.7142779
  14.0524448  14.0327453  14.0450985  14.0546523  13.6914192  13.5792175
  14.0271236  14.0252536  14.1256503  13.6709537  13.6689160  13.2871043
  14.0358211  13.9957073  14.0666831  14.0849514  13.4497339  13.5677681
  12.6469486  12.7588948  12.7721181  13.1547543  13.0001808  12.8023288
  12.6715068  12.9775050  13.0163775  12.6553619  13.3545664  12.7528902
  12.8405938  12.7838175  12.8861906  12.7664992  13.1819282  12.7622580
  13.0319885  13.0826584  12.6590555  13.0392328  12.9567484  12.7123527
  12.6176911  13.3031694  12.7219744  12.6325908
 SUMMED SPIN DENSITY           2.00000000
 TOTAL ATOMIC SPINS  :
   0.0016352   0.0036079   0.0005964  -0.0007069   0.0006500   0.0091411
   0.0000971   0.0000095  -0.0002280   0.0019316   0.0145920   0.0002131
   0.0000984  -0.0001853  -0.0047944  -0.0003847   0.0005657   0.0002235
   0.0031250   0.0003904  -0.0006230  -0.0102355   0.0019399   0.0282960
   0.0201761   0.0107112   0.0003886   0.0011555  -0.0092603   0.0088058
   0.0217366   0.0237999  -0.0140387   0.0005437   0.0000520  -0.0000849
   0.0308248   0.0004104   0.0054231   0.0000377   0.0004092   0.0007934
   0.0184279   0.0006213   0.0017203   0.0009960   0.0002539   0.0017350
  -0.0023779  -0.0015774   0.0002222  -0.0001039  -0.0119558   0.0613676
  -0.0041428   0.0007448   0.0013414  -0.0164213   0.0078622  -0.0026706
  -0.0017370  -0.0021795  -0.0027631  -0.0251217  -0.6122963  -0.0368697
  -0.0102830  -0.0038056   0.0232131  -0.0082358   0.0196469  -0.0004259
  -0.0032508  -0.0119674   0.0060061  -0.0020123  -0.0007680   0.0280507
   0.0218362   0.0008474   0.0326174   0.6004120   0.0586422   0.0385307
   0.0050010  -0.0013987  -0.0035929  -0.0268072  -0.0032303   0.0007304
   0.0008157   0.0072618   0.0003458   0.0096115  -0.0051280   0.0015925
   0.0015988   0.0009153  -0.0013181  -0.0002104   0.0061280   0.0031466
  -0.0004810   0.0029236   0.0009176  -0.0005837  -0.0012657  -0.0007636
   0.0012863  -0.0015247   0.0008761   0.0007624   0.0028703   0.0096999
   0.0013514   0.0015539   0.0013978   0.0043888   0.0023530   0.0038726
   0.0034262   0.0177814  -0.0004602   0.0061457   0.0199215   0.7396750
   0.0002285  -0.0006784  -0.0037967   0.0000187  -0.0066878  -0.0030604
   0.7734178  -0.0097263  -0.7343363   0.0047068   0.7827542   0.0123879
   0.0024284  -0.0013409   0.0018795   0.0112536   0.0088889   0.0073532
   0.0156740   0.0176600  -0.0038510  -0.0027285
 TTTTTTTTTTTTTTTTTTTTTTTTTTTTTT MOQGAD      TELAPSE    23726.33 TCPU    23154.03
 WARNING **** GENBUD **** COUL. BIPO BUFFER TOO SMALL - TO AVOID I/O SET BIPOSIZE =     1971125
 TTTTTTTTTTTTTTTTTTTTTTTTTTTTTT SHELLX      TELAPSE    23806.83 TCPU    23232.11
 TTTTTTTTTTTTTTTTTTTTTTTTTTTTTT MONMO3      TELAPSE    23813.68 TCPU    23238.95
 NUMERICALLY INTEGRATED DENSITY    869.0001014552    867.0001022208
 TTTTTTTTTTTTTTTTTTTTTTTTTTTTTT NUMDFT      TELAPSE    23819.55 TCPU    23244.80
 CYC 113 ETOT(AU) -3.084441482321E+04 DETOT -1.20E-07 tst  1.32E-09 PX  1.58E-04
 MODIFIED BROYDEN: MIX%=  90 W0=  1.000000000000E-04 W=  5.741025167937E+02
 TTTTTTTTTTTTTTTTTTTTTTTTTTTTTT FDIK        TELAPSE    23908.32 TCPU    23330.30

    ALPHA      ELECTRONS
 INSULATING STATE
 TOP OF VALENCE BANDS -    BAND    869; K    2; EIG -9.3984517E-02 AU
 TOP OF VALENCE BANDS -    BAND    869; K    1; EIG -9.4885687E-02 AU
 BOTTOM OF VIRTUAL BANDS - BAND    870; K    5; EIG -8.3981697E-02 AU
 BOTTOM OF VIRTUAL BANDS - BAND    870; K    1; EIG -8.3947766E-02 AU

    BETA       ELECTRONS
 INSULATING STATE
 TOP OF VALENCE BANDS -    BAND    867; K    6; EIG -9.4237181E-02 AU
 TOP OF VALENCE BANDS -    BAND    867; K    1; EIG -1.0687255E-01 AU
 BOTTOM OF VIRTUAL BANDS - BAND    868; K    1; EIG -8.1713303E-02 AU
 TTTTTTTTTTTTTTTTTTTTTTTTTTTTTT PDIG        TELAPSE    23911.35 TCPU    23333.32
 CHARGE NORMALIZATION FACTOR   1.00000000
 TOTAL ATOMIC CHARGES:
   8.6035437   8.7003145   8.7194566   8.4575153   8.6687041   8.8599458
   8.8009369   8.8450495   8.7428063   8.7806618   8.5571937   8.6368569
   8.5839481   8.6073898   8.7663280   8.7558082   8.6157611   8.6079181
   8.6368927   8.5507898   8.6070349   8.6439671   8.6224207   8.5733844
   8.5377257   8.6798242   8.5810313   8.8549893   8.6975957   8.6857862
   8.7519247   8.6025284   8.6032208   8.7326741   8.6952432   8.5860216
   8.5759818   8.5725395   8.6981646   8.6607008   8.6587523   8.7810311
   8.6437322   8.5831711   8.5955707   8.5978478   8.5980579   8.5955727
   8.6432134   8.6842923   8.6576131   8.6615008   8.6447005   8.7508041
   8.6902871   8.7741342  13.7816375  13.7064079  13.9530659  14.0494726
  14.0421287  14.0476673  13.9830572  13.9977453  13.8265334  13.7009316
  13.9798112  13.9980504  14.0386669  14.0674394  13.9799933  13.9890145
  13.2231424  13.7648236  14.1058245  14.0333835  13.9963682  14.0089443
  13.9996897  13.9830457  13.5831514  13.5475318  14.0846971  14.0083112
  13.9950267  13.9986607  13.9973941  14.0025842  13.9881905  13.9760742
  13.9953432  13.9816319  14.0005455  13.9843831  13.9949046  14.0038380
  14.0035215  13.9929484  14.0981210  14.0450062  13.7227693  13.7142705
  14.0524464  14.0327753  14.0451129  14.0547135  13.6914305  13.5792143
  14.0271488  14.0252493  14.1256726  13.6709620  13.6688748  13.2871249
  14.0358735  13.9957226  14.0667022  14.0849334  13.4497457  13.5677542
  12.6469370  12.7588904  12.7721144  13.1547459  13.0001992  12.8023063
  12.6715043  12.9775187  13.0163804  12.6553655  13.3544786  12.7528918
  12.8405327  12.7838099  12.8861750  12.7664939  13.1819309  12.7622595
  13.0319916  13.0826391  12.6590335  13.0392547  12.9567223  12.7123483
  12.6176781  13.3031782  12.7219661  12.6325852
 SUMMED SPIN DENSITY           2.00000000
 TOTAL ATOMIC SPINS  :
   0.0016350   0.0036079   0.0005954  -0.0007066   0.0006497   0.0091409
   0.0000965   0.0000095  -0.0002293   0.0019316   0.0145924   0.0002130
   0.0000984  -0.0001862  -0.0047954  -0.0003854   0.0005657   0.0002236
   0.0031251   0.0003876  -0.0006231  -0.0102616   0.0019393   0.0282930
   0.0201784   0.0107115   0.0003892   0.0011554  -0.0092605   0.0088018
   0.0217374   0.0238000  -0.0140454   0.0005427   0.0000529  -0.0000844
   0.0308265   0.0004092   0.0054235   0.0000341   0.0004093   0.0007837
   0.0184287   0.0006187   0.0017198   0.0009901   0.0002540   0.0017348
  -0.0023819  -0.0015777   0.0002214  -0.0001167  -0.0119564   0.0613674
  -0.0041401   0.0007374   0.0017196  -0.0163058   0.0078534  -0.0026774
  -0.0017492  -0.0021691  -0.0027713  -0.0251200  -0.6122391  -0.0368541
  -0.0102929  -0.0037944   0.0232132  -0.0082375   0.0196491  -0.0003963
  -0.0032471  -0.0122974   0.0060269  -0.0020105  -0.0007678   0.0280538
   0.0218453   0.0008967   0.0326081   0.6004411   0.0586495   0.0385340
   0.0049983  -0.0014080  -0.0036085  -0.0268059  -0.0032268   0.0007335
   0.0008185   0.0072620   0.0003507   0.0096133  -0.0051276   0.0015917
   0.0015993   0.0009163  -0.0013192  -0.0002102   0.0061324   0.0031523
  -0.0004813   0.0029251   0.0009182  -0.0005836  -0.0012659  -0.0007642
   0.0012899  -0.0015255   0.0008762   0.0007639   0.0028717   0.0096973
   0.0013517   0.0015569   0.0013972   0.0043879   0.0023541   0.0038741
   0.0034262   0.0177825  -0.0004605   0.0061446   0.0199234   0.7396913
   0.0002286  -0.0006779  -0.0037965   0.0000606  -0.0070754  -0.0030583
   0.7734243  -0.0097246  -0.7343311   0.0047059   0.7827596   0.0123996
   0.0024306  -0.0013481   0.0018816   0.0112604   0.0088864   0.0073657
   0.0156716   0.0176666  -0.0038507  -0.0027348
 TTTTTTTTTTTTTTTTTTTTTTTTTTTTTT MOQGAD      TELAPSE    23911.45 TCPU    23333.43
 WARNING **** GENBUD **** COUL. BIPO BUFFER TOO SMALL - TO AVOID I/O SET BIPOSIZE =     1971125
 TTTTTTTTTTTTTTTTTTTTTTTTTTTTTT SHELLX      TELAPSE    23992.32 TCPU    23411.30
 TTTTTTTTTTTTTTTTTTTTTTTTTTTTTT MONMO3      TELAPSE    23999.85 TCPU    23418.82
 NUMERICALLY INTEGRATED DENSITY    869.0001014552    867.0001022229
 TTTTTTTTTTTTTTTTTTTTTTTTTTTTTT NUMDFT      TELAPSE    24005.73 TCPU    23424.70
 CYC 114 ETOT(AU) -3.084441482327E+04 DETOT -5.91E-08 tst  4.41E-09 PX  2.91E-04
 MODIFIED BROYDEN: MIX%=  90 W0=  1.000000000000E-04 W=  4.961235564541E+02
 TTTTTTTTTTTTTTTTTTTTTTTTTTTTTT FDIK        TELAPSE    24084.84 TCPU    23500.31

    ALPHA      ELECTRONS
 INSULATING STATE
 TOP OF VALENCE BANDS -    BAND    869; K    2; EIG -9.3977735E-02 AU
 TOP OF VALENCE BANDS -    BAND    869; K    1; EIG -9.4880358E-02 AU
 BOTTOM OF VIRTUAL BANDS - BAND    870; K    5; EIG -8.3979602E-02 AU
 BOTTOM OF VIRTUAL BANDS - BAND    870; K    1; EIG -8.3945756E-02 AU

    BETA       ELECTRONS
 INSULATING STATE
 TOP OF VALENCE BANDS -    BAND    867; K    6; EIG -9.4254089E-02 AU
 TOP OF VALENCE BANDS -    BAND    867; K    1; EIG -1.0687305E-01 AU
 BOTTOM OF VIRTUAL BANDS - BAND    868; K    1; EIG -8.1707147E-02 AU
 TTTTTTTTTTTTTTTTTTTTTTTTTTTTTT PDIG        TELAPSE    24087.87 TCPU    23503.33
 CHARGE NORMALIZATION FACTOR   1.00000000
 TOTAL ATOMIC CHARGES:
   8.6035485   8.7003268   8.7194528   8.4575172   8.6687205   8.8599308
   8.8009427   8.8450589   8.7428054   8.7806662   8.5571851   8.6368613
   8.5839500   8.6073892   8.7663214   8.7558058   8.6157686   8.6079212
   8.6368943   8.5507981   8.6070362   8.6439415   8.6224213   8.5733868
   8.5377347   8.6798297   8.5810321   8.8549897   8.6975973   8.6857720
   8.7519140   8.6025241   8.6032295   8.7326775   8.6952454   8.5860214
   8.5759841   8.5725470   8.6981614   8.6607078   8.6587528   8.7810223
   8.6437316   8.5831694   8.5955643   8.5978432   8.5980591   8.5955791
   8.6432029   8.6842980   8.6576110   8.6615133   8.6446970   8.7507781
   8.6902759   8.7741338  13.7816132  13.7064102  13.9530777  14.0494882
  14.0421302  14.0476623  13.9830360  13.9977422  13.8265192  13.7009295
  13.9798209  13.9980956  14.0386705  14.0674725  13.9799991  13.9890207
  13.2231526  13.7648889  14.1058548  14.0333893  13.9963876  14.0089390
  13.9996691  13.9830470  13.5831669  13.5475222  14.0846981  14.0083012
  13.9950548  13.9986842  13.9974169  14.0025644  13.9881631  13.9760434
  13.9953362  13.9816102  14.0004915  13.9843674  13.9949312  14.0038404
  14.0035103  13.9928964  14.0981203  14.0449698  13.7227791  13.7143048
  14.0523966  14.0327703  14.0450913  14.0547031  13.6914236  13.5792182
  14.0271626  14.0252306  14.1256612  13.6709481  13.6688790  13.2871332
  14.0358459  13.9957319  14.0666981  14.0849579  13.4497622  13.5677583
  12.6469396  12.7588896  12.7721127  13.1547675  13.0002081  12.8023024
  12.6714999  12.9775230  13.0163859  12.6553555  13.3545341  12.7528923
  12.8405321  12.7838080  12.8861601  12.7664945  13.1819162  12.7622621
  13.0319892  13.0826468  12.6590286  13.0392624  12.9567224  12.7123494
  12.6176790  13.3031801  12.7219643  12.6325830
 SUMMED SPIN DENSITY           2.00000000
 TOTAL ATOMIC SPINS  :
   0.0016349   0.0036081   0.0005944  -0.0007068   0.0006496   0.0091379
   0.0000959   0.0000096  -0.0002296   0.0019314   0.0145927   0.0002129
   0.0000982  -0.0001869  -0.0047961  -0.0003859   0.0005656   0.0002236
   0.0031257   0.0003842  -0.0006233  -0.0102894   0.0019383   0.0282922
   0.0201775   0.0107102   0.0003899   0.0011549  -0.0092604   0.0087981
   0.0217369   0.0238009  -0.0140447   0.0005416   0.0000538  -0.0000842
   0.0308275   0.0004080   0.0054241   0.0000305   0.0004092   0.0007724
   0.0184287   0.0006149   0.0017189   0.0009827   0.0002540   0.0017349
  -0.0023842  -0.0015779   0.0002202  -0.0001304  -0.0119561   0.0613698
  -0.0041376   0.0007290   0.0021134  -0.0161832   0.0078439  -0.0026847
  -0.0017628  -0.0021578  -0.0027794  -0.0251190  -0.6121919  -0.0368355
  -0.0103041  -0.0037834   0.0232145  -0.0082387   0.0196508  -0.0003660
  -0.0032433  -0.0126481   0.0060485  -0.0020088  -0.0007681   0.0280573
   0.0218549   0.0009482   0.0325984   0.6004753   0.0586569   0.0385368
   0.0049953  -0.0014185  -0.0036247  -0.0268042  -0.0032232   0.0007367
   0.0008213   0.0072621   0.0003559   0.0096151  -0.0051275   0.0015909
   0.0015996   0.0009171  -0.0013194  -0.0002099   0.0061374   0.0031581
  -0.0004812   0.0029269   0.0009189  -0.0005835  -0.0012656  -0.0007645
   0.0012943  -0.0015260   0.0008766   0.0007657   0.0028727   0.0096964
   0.0013514   0.0015597   0.0013969   0.0043872   0.0023547   0.0038762
   0.0034265   0.0177827  -0.0004603   0.0061443   0.0199226   0.7397060
   0.0002288  -0.0006781  -0.0037953   0.0001068  -0.0074843  -0.0030559
   0.7734249  -0.0097228  -0.7343221   0.0047054   0.7827752   0.0124117
   0.0024344  -0.0013540   0.0018826   0.0112678   0.0088855   0.0073800
   0.0156714   0.0176732  -0.0038496  -0.0027407
 TTTTTTTTTTTTTTTTTTTTTTTTTTTTTT MOQGAD      TELAPSE    24088.01 TCPU    23503.48
 WARNING **** GENBUD **** COUL. BIPO BUFFER TOO SMALL - TO AVOID I/O SET BIPOSIZE =     1971125
 TTTTTTTTTTTTTTTTTTTTTTTTTTTTTT SHELLX      TELAPSE    24167.98 TCPU    23583.33
 +++ ENERGIES IN A.U. +++
 ::: EXT EL-POLE                                  -4.3383911375871E+04
 ::: EXT EL-SPHEROPOLE                             3.1491073882220E+02
 ::: BIELET ZONE E-E                               5.2691346526636E+04
 ::: TOTAL E-E                                     9.6223458895876E+03
 ::: TOTAL E-N + N-E                              -6.3747194845459E+04
 ::: TOTAL N-N                                    -5.1695233371890E+03
 ::: KINETIC ENERGY                                3.0737750676586E+04
 ::: PSEUDO TOTAL   ENERGY                        -2.8556621616475E+04
 ::: VIRIAL COEFFICIENT                            1.0367847567275E+00
 TTTTTTTTTTTTTTTTTTTTTTTTTTTTTT MONMO3      TELAPSE    24175.75 TCPU    23591.03
 NUMERICALLY INTEGRATED DENSITY    869.0001014541    867.0001022238
 TTTTTTTTTTTTTTTTTTTTTTTTTTTTTT NUMDFT      TELAPSE    24181.97 TCPU    23597.25
 CYC 115 ETOT(AU) -3.084441482333E+04 DETOT -6.23E-08 tst  5.46E-09 PX  2.91E-04

 == SCF ENDED - CONVERGENCE ON ENERGY      E(AU) -3.0844414823329E+04 CYCLES 115


 ENERGY EXPRESSION=HARTREE+FOCK EXCH*0.05000+(BECKE  EXCH)*0.95000+LYP    CORR

 FINITE TEMPERATURE DFT CALCULATION 
 TEMPERATURE      (T)    1.000000000000E-13 HARTREE 
 ENERGY           (E)   -3.084441482333E+04
 FREE ENERGY      (F)   -3.084441482333E+04
 ELECTRON ENTROPY (S)    0.000000000000E+00
 (E(T)+F(T))/2    (E0)  -3.084441482333E+04


 TOTAL ENERGY(DFT)(AU)(115) -3.0844414823329E+04 DE-6.2E-08 tester 5.5E-09
 TTTTTTTTTTTTTTTTTTTTTTTTTTTTTT EDFT        TELAPSE    24182.35 TCPU    23597.57
 EIGENVECTORS IN FORTRAN UNIT 10
 TTTTTTTTTTTTTTTTTTTTTTTTTTTTTT END         TELAPSE    24226.06 TCPU    23641.15
 EEEEEEEEEE TERMINATION  DATE 10 07 2014 TIME 05:06:12.2
NODE    0 CPU TIME =     23641.153
    TOTAL CPU TIME =   4530512.507
