--------------------------------------------------------------------------
WARNING: Open MPI will create a shared memory backing file in a
directory that appears to be mounted on a network filesystem.
Creating the shared memory backup file on a network file system, such
as NFS or Lustre is not recommended -- it may cause excessive network
traffic to your file servers and/or cause shared memory traffic in
Open MPI to be much slower than expected.

You may want to check what the typical temporary directory is on your
node.  Possible sources of the location of this temporary directory
include the $TEMPDIR, $TEMP, and $TMP environment variables.

Note, too, that system administrators can set a list of filesystems
where Open MPI is disallowed from creating temporary files by settings
the MCA parameter "orte_no_session_dir".

  Local host: r2i7n12
  Fileame:    /ichec/work/scratch/tmp/362645.service1.cb3.ichec.ie/openmpi-sessions-emehes@r2i7n12_0/28911/1/shared_mem_pool.r2i7n12

You can set the MCA paramter shmem_mmap_enable_nfs_warning to 0 to
disable this message.
--------------------------------------------------------------------------
--------------------------------------------------------------------------
WARNING: It appears that your OpenFabrics subsystem is configured to only
allow registering part of your physical memory.  This can cause MPI jobs to
run with erratic performance, hang, and/or crash.

This may be caused by your OpenFabrics vendor limiting the amount of
physical memory that can be registered.  You should investigate the
relevant Linux kernel module parameters that control how much physical
memory can be registered, and increase them to allow registering all
physical memory on your machine.

See this Open MPI FAQ item for more information on these Linux kernel module
parameters:

    http://www.open-mpi.org/faq/?category=openfabrics#ib-locked-pages

  Local host:              r2i7n12
  Registerable memory:     32768 MiB
  Total memory:            65506 MiB

Your MPI job will continue, but may be behave poorly and/or hang.
--------------------------------------------------------------------------
         192 PROCESSORS WORKING

         
 *******************************************************************************
 *                                                                             *
 *                                CRYSTAL09                                    *
 *                              public : 2.0                                   *
 *                      December 10th, 2012 - parallel executable              *
 *                                                                             *
 *                                                                             *
 *                                                                             *
 *                              MAIN AUTHORS                                   *
 *                                                                             *
 *    R. DOVESI(1,10), V.R. SAUNDERS(2), C. ROETTI(1,10), R. ORLANDO (1,3),    *
 *  C.M. ZICOVICH-WILSON(1,4), F. PASCALE(5), B. CIVALLERI(1,10), K. DOLL(6),  *
 *       N.M. HARRISON(2,7), I. J. BUSH(2), Ph. D'ARCO(8), M. LLUNELL(9)       *
 *                                                                             *
 * (1) THEORETICAL CHEMISTRY GROUP - UNIVERSITA' DI TORINO - TORINO (ITALY)    *
 *      http://www.crystal.unito.it                                            *
 * (2) COMPUTATIONAL SCIENCE & ENGINEERING DEPARTMENT - STFC DARESBURY LABORATO*Y (UK)
 *     http://www.cse.stfc.ac.uk/cmg/CRYSTAL/                                  *
 * (3) UNIVERSITA' DEL PIEMONTE ORIENTALE - ALESSANDRIA (ITALY)                *
 * (4) UNIVERSIDAD AUTONOMA DEL ESTADO DE MORELOS - CUERNAVACA (MEXICO)        *
 * (5) UNIVERSITE' HENRI POINCARE' - NANCY (FRANCE)                            *
 * (6) MPI FUER FESTKOERPERFORSCHUNG - STUTTGART (GERMANY)                     *
 * (7) IMPERIAL COLLEGE - LONDON (UK)                                          *
 * (8) UNIVERSITE' PIERRE ET MARIE CURIE - PARIS (FRANCE)                      *
 * (9) UNIVERSIDAD DE BARCELONA - BARCELONA (SPAIN)                            *
 *(10) NIS - NANOSTRUCTURED INTERFACES AND SURFACES - TORINO (ITALY)           *
 *     http://www.crystal.unito.it                                             *
 *******************************************************************************
 EEEEEEEEEE STARTING  DATE 19 12 2014 TIME 12:39:52.0
 Created with astools                                                            

 CRYSTAL CALCULATION
 (INPUT ACCORDING TO THE INTERNATIONAL TABLES FOR X-RAY CRYSTALLOGRAPHY)
 CRYSTAL FAMILY                       :  TRICLINIC   
 CRYSTAL CLASS  (GROTH - 1921)        :  TRICLINIC PEDIAL                     

 SPACE GROUP (NONCENTROSYMMETRIC)     :  P 1             

 LATTICE PARAMETERS  (ANGSTROMS AND DEGREES) - CONVENTIONAL CELL
        A           B           C        ALPHA        BETA       GAMMA
    10.83871    10.40148    21.12170    90.00000    90.00000    90.00000


 NUMBER OF IRREDUCIBLE ATOMS IN THE CONVENTIONAL CELL:  148

 INPUT COORDINATES

 ATOM AT. N.              COORDINATES
   1   8     2.580060000000E-01  3.529690000000E-01  6.438140000000E-01
   2   8     1.563100000000E-01  5.939570000000E-01  6.598600000000E-01
   3   8     5.113520000000E-01  3.121820000000E-01  6.248190000000E-01
   4   8     8.079240000000E-01  4.543710000000E-01  5.710190000000E-01
   5   8     1.568090000000E-01  5.639200000000E-02  6.329430000000E-01
   6   8     5.474290000000E-01  5.036100000000E-01  5.433020000000E-01
   7   8     8.423060000000E-01  6.526400000000E-01  6.499040000000E-01
   8   8     3.530850000000E-01  3.487000000000E-01  5.316870000000E-01
   9   8     6.886890000000E-01  1.084030000000E-01  4.859300000000E-01
  10   8     9.010110000000E-01  7.014200000000E-02  6.582020000000E-01
  11   8     1.003068000000E+00  4.592000000000E-02  5.467360000000E-01
  12   8     5.522940000000E-01  7.030240000000E-01  6.552950000000E-01
  13   8    -7.415000000000E-03  4.212550000000E-01  6.426960000000E-01
  14   8     2.614870000000E-01  8.358170000000E-01  6.215790000000E-01
  15   8     1.702140000000E-01  6.529050000000E-01  5.435260000000E-01
  16   8     2.591600000000E-02  8.169880000000E-01  5.968250000000E-01
  17   8     6.750470000000E-01  7.537150000000E-01  5.451170000000E-01
  18   8     4.590250000000E-01  8.708700000000E-01  5.579350000000E-01
  19   8     3.630310000000E-01  1.205310000000E-01  5.937210000000E-01
  20   8     2.624760000000E-01  8.429960000000E-01  7.675070000000E-01
  21   8     1.736050000000E-01  2.341600000000E-01  8.461080000000E-01
  22   8     9.596610000000E-01  3.228010000000E-01  9.478430000000E-01
  23   8     3.560510000000E-01  5.374800000000E-02  8.151980000000E-01
  24   8     6.734310000000E-01  1.644560000000E-01  7.027890000000E-01
  25   8     2.175190000000E-01  6.581750000000E-01  8.766500000000E-01
  26   8     8.238880000000E-01  6.892500000000E-02  7.863580000000E-01
  27   8     3.868010000000E-01  4.052310000000E-01  8.548330000000E-01
  28   8     2.659280000000E-01  5.197990000000E-01  7.657320000000E-01
  29   8     4.893400000000E-02  8.977360000000E-01  6.993760000000E-01
  30   8     1.014702000000E+00  8.367030000000E-01  9.256470000000E-01
  31   8     8.647600000000E-01  4.951020000000E-01  7.392680000000E-01
  32   8     4.634960000000E-01  6.124000000000E-01  7.953240000000E-01
  33   8     7.539150000000E-01  8.976930000000E-01  6.976470000000E-01
  34   8     5.389280000000E-01 -3.068900000000E-02  9.548590000000E-01
  35   8     5.984380000000E-01  7.184440000000E-01 -7.745000000000E-03
  36   8     5.099230000000E-01  8.557380000000E-01  7.706720000000E-01
  37   8     5.849220000000E-01  7.813820000000E-01  8.749210000000E-01
  38   8     9.503740000000E-01  8.614600000000E-02  8.984000000000E-01
  39   8     5.517130000000E-01  3.507340000000E-01  9.468780000000E-01
  40   8     7.277130000000E-01  1.894180000000E-01  8.919170000000E-01
  41   8     6.220800000000E-02  9.490310000000E-01  8.161600000000E-01
  42   8     1.927450000000E-01  2.526100000000E-02  9.126220000000E-01
  43   8     3.936830000000E-01  5.342160000000E-01  9.564750000000E-01
  44   8     7.569900000000E-02  4.736780000000E-01  8.390020000000E-01
  45   8     1.139300000000E-01  3.402900000000E-01  7.359870000000E-01
  46   8     9.338520000000E-01  2.777640000000E-01  8.211690000000E-01
  47   8     3.827280000000E-01  1.000977000000E+00  6.939600000000E-01
  48   8     4.809180000000E-01  3.721090000000E-01  7.380340000000E-01
  49   8     6.894530000000E-01  3.624140000000E-01  7.833430000000E-01
  50   8     6.914800000000E-01  6.378540000000E-01  7.902260000000E-01
  51   8     8.023290000000E-01  4.859460000000E-01  8.749370000000E-01
  52   8     7.847100000000E-02  6.980800000000E-01  7.786470000000E-01
  53   8     6.990120000000E-01  4.071420000000E-01  6.598250000000E-01
  54   8     9.585620000000E-01  5.811930000000E-01  9.554580000000E-01
  55   8     3.705300000000E-01  7.928490000000E-01  9.552030000000E-01
  56   8     3.781160000000E-01  1.989810000000E-01  9.149440000000E-01
  57  14    -1.827100000000E-02  1.917800000000E-02  4.147700000000E-02
  58  14     2.553990000000E-01  3.061250000000E-01  1.708000000000E-02
  59  14     1.384830000000E-01  4.393350000000E-01  8.629400000000E-02
  60  14     3.973320000000E-01  1.917860000000E-01  8.769800000000E-02
  61  14     3.080600000000E-02  3.156070000000E-01  1.608530000000E-01
  62  14     2.819130000000E-01  7.161300000000E-02  1.610930000000E-01
  63  14     1.532300000000E-01  1.912490000000E-01  2.290310000000E-01
  64  14     3.954720000000E-01  4.345670000000E-01  2.248540000000E-01
  65  14     7.148600000000E-02  6.184970000000E-01  1.022071000000E+00
  66  14     3.394290000000E-01  8.667380000000E-01  4.438100000000E-02
  67  14     1.601810000000E-01  9.447470000000E-01  9.413800000000E-02
  68  14     3.990750000000E-01  6.864230000000E-01  1.018040000000E-01
  69  14     3.138500000000E-02  8.172180000000E-01  1.588290000000E-01
  70  14     2.659680000000E-01  5.544550000000E-01  1.576790000000E-01
  71  14     1.552060000000E-01  6.906020000000E-01  2.249330000000E-01
  72  14     4.052150000000E-01  9.429240000000E-01  2.260740000000E-01
  73  14     5.156570000000E-01  3.193700000000E-02  2.954600000000E-02
  74  14     7.697560000000E-01  3.224230000000E-01  3.218000000000E-02
  75  14     6.585720000000E-01  4.518580000000E-01  9.804700000000E-02
  76  14     8.979870000000E-01  1.912320000000E-01  9.957400000000E-02
  77  14     5.227850000000E-01  3.192820000000E-01  1.555780000000E-01
  78  14     7.714650000000E-01  6.270400000000E-02  1.645920000000E-01
  79  14     6.495750000000E-01  2.002580000000E-01  2.253580000000E-01
  80  14     9.106680000000E-01  4.475170000000E-01  2.246550000000E-01
  81  14     5.452010000000E-01  5.999990000000E-01  3.702800000000E-02
  82  14     8.896640000000E-01  7.475240000000E-01  9.436940000000E-01
  83  14     6.637200000000E-01  9.275420000000E-01  9.665500000000E-02
  84  14     9.027340000000E-01  7.211250000000E-01  8.317000000000E-02
  85  14     5.342510000000E-01  8.131690000000E-01  1.632240000000E-01
  86  14     7.959450000000E-01  5.834980000000E-01  1.548910000000E-01
  87  14     6.649290000000E-01  6.914170000000E-01  2.244610000000E-01
  88  14     9.093670000000E-01  9.438160000000E-01  2.282840000000E-01
  89  14     2.673500000000E-02  7.262800000000E-02  2.975510000000E-01
  90  14     2.773910000000E-01  3.116500000000E-01  2.976440000000E-01
  91  14     3.816000000000E-02  5.654220000000E-01  2.936940000000E-01
  92  14     2.764050000000E-01  8.201040000000E-01  2.913770000000E-01
  93  14     5.267260000000E-01  7.358200000000E-02  2.907650000000E-01
  94  14     7.825110000000E-01  3.224580000000E-01  2.894270000000E-01
  95  14     5.305590000000E-01  5.656170000000E-01  2.817190000000E-01
  96  14     7.852130000000E-01  8.139170000000E-01  2.934000000000E-01
  97  14     1.554890000000E-01  4.385060000000E-01  3.662240000000E-01
  98  14     4.031880000000E-01  1.854360000000E-01  3.643760000000E-01
  99  14     2.476500000000E-02  3.151240000000E-01  4.361130000000E-01
 100  14     2.782240000000E-01  6.758800000000E-02  4.377010000000E-01
 101  14     1.443410000000E-01  1.911860000000E-01  5.094020000000E-01
 102  14     4.388520000000E-01  4.511120000000E-01  4.901390000000E-01
 103  14     1.607720000000E-01  9.506590000000E-01  3.617290000000E-01
 104  14     4.104390000000E-01  6.878560000000E-01  3.483980000000E-01
 105  14     3.426500000000E-02  8.206830000000E-01  4.253580000000E-01
 106  14     3.005210000000E-01  5.675240000000E-01  4.216730000000E-01
 107  14     2.064850000000E-01  7.299220000000E-01  4.760170000000E-01
 108  14     3.773790000000E-01  8.830210000000E-01  4.863840000000E-01
 109  14     6.563850000000E-01  4.540020000000E-01  3.499280000000E-01
 110  14     8.976990000000E-01  2.012840000000E-01  3.636020000000E-01
 111  14     5.372170000000E-01  3.285690000000E-01  4.145150000000E-01
 112  14     7.792440000000E-01  5.435600000000E-02  4.260670000000E-01
 113  14     6.793320000000E-01  2.674280000000E-01  4.907870000000E-01
 114  14     8.515920000000E-01  4.078380000000E-01  4.938900000000E-01
 115  14     6.553000000000E-01  9.478100000000E-01  3.528890000000E-01
 116  14     9.142040000000E-01  6.893180000000E-01  3.591630000000E-01
 117  14     5.267060000000E-01  8.189270000000E-01  4.135010000000E-01
 118  14     7.830820000000E-01  5.643580000000E-01  4.216220000000E-01
 119  14     7.046180000000E-01  7.523140000000E-01  4.661140000000E-01
 120  14     9.161570000000E-01  9.577440000000E-01  4.949040000000E-01
 121  14     3.657390000000E-01  2.796110000000E-01  6.014580000000E-01
 122  14     2.114700000000E-02  9.855230000000E-01  6.293220000000E-01
 123  14     1.563100000000E-01  7.210130000000E-01  6.124570000000E-01
 124  14     6.318860000000E-01  3.877740000000E-01  5.824380000000E-01
 125  14     8.564420000000E-01  4.920550000000E-01  6.564050000000E-01
 126  14     2.954790000000E-01  9.960280000000E-01  6.316540000000E-01
 127  14     5.570310000000E-01  7.694810000000E-01  5.905590000000E-01
 128  14     9.146740000000E-01  7.515660000000E-01  5.330010000000E-01
 129  14     2.776950000000E-01  1.295250000000E-01  8.704400000000E-01
 130  14     8.614090000000E-01  4.489650000000E-01  9.460300000000E-01
 131  14     3.815440000000E-01  9.378930000000E-01  7.639260000000E-01
 132  14     7.868290000000E-01  5.143000000000E-02  7.107770000000E-01
 133  14     1.622670000000E-01  5.889610000000E-01  8.124480000000E-01
 134  14     8.392480000000E-01  7.591580000000E-01  7.147810000000E-01
 135  14     5.651200000000E-01  7.238360000000E-01  8.034320000000E-01
 136  14     3.481690000000E-01  6.550600000000E-01  9.127060000000E-01
 137  14     8.500440000000E-01  1.587560000000E-01  8.484920000000E-01
 138  14     1.038563000000E+00  2.041320000000E-01  9.823720000000E-01
 139  14     4.007330000000E-01  3.619570000000E-01  9.311460000000E-01
 140  14     7.464100000000E-02  3.277930000000E-01  8.097460000000E-01
 141  14     1.117260000000E-01  8.489730000000E-01  7.636240000000E-01
 142  14     6.382120000000E-01  2.174770000000E-01  9.588300000000E-01
 143  14     6.218660000000E-01  3.149660000000E-01  7.167180000000E-01
 144  14     5.571400000000E-02  9.711940000000E-01  8.914670000000E-01
 145  14     1.352260000000E-01  4.302570000000E-01  6.717140000000E-01
 146  14     5.284080000000E-01  8.178570000000E-01  9.426760000000E-01
 147  14     4.062900000000E-01  4.689990000000E-01  7.859530000000E-01
 148  14     7.659340000000E-01  4.955490000000E-01  7.982980000000E-01

 *******************************************************************************

 << INFORMATION >>: FROM NOW ON, ALL COORDINATES REFER TO THE PRIMITIVE CELL

 *******************************************************************************

 LATTICE PARAMETERS  (ANGSTROMS AND DEGREES) - PRIMITIVE CELL
       A          B          C         ALPHA     BETA     GAMMA        VOLUME
   10.83871   10.40148   21.12170    90.00000  90.00000  90.00000   2381.232301

 COORDINATES OF THE EQUIVALENT ATOMS (FRACTIONAL UNITS)

 N. ATOM EQUIV AT. N.          X                  Y                  Z

   1   1   1    8 O     2.58006000000E-01  3.52969000000E-01 -3.56186000000E-01

   2   2   1    8 O     1.56310000000E-01 -4.06043000000E-01 -3.40140000000E-01

   3   3   1    8 O    -4.88648000000E-01  3.12182000000E-01 -3.75181000000E-01

   4   4   1    8 O    -1.92076000000E-01  4.54371000000E-01 -4.28981000000E-01

   5   5   1    8 O     1.56809000000E-01  5.63920000000E-02 -3.67057000000E-01

   6   6   1    8 O    -4.52571000000E-01 -4.96390000000E-01 -4.56698000000E-01

   7   7   1    8 O    -1.57694000000E-01 -3.47360000000E-01 -3.50096000000E-01

   8   8   1    8 O     3.53085000000E-01  3.48700000000E-01 -4.68313000000E-01

   9   9   1    8 O    -3.11311000000E-01  1.08403000000E-01  4.85930000000E-01

  10  10   1    8 O    -9.89890000000E-02  7.01420000000E-02 -3.41798000000E-01

  11  11   1    8 O     3.06800000000E-03  4.59200000000E-02 -4.53264000000E-01

  12  12   1    8 O    -4.47706000000E-01 -2.96976000000E-01 -3.44705000000E-01

  13  13   1    8 O    -7.41500000000E-03  4.21255000000E-01 -3.57304000000E-01

  14  14   1    8 O     2.61487000000E-01 -1.64183000000E-01 -3.78421000000E-01

  15  15   1    8 O     1.70214000000E-01 -3.47095000000E-01 -4.56474000000E-01

  16  16   1    8 O     2.59160000000E-02 -1.83012000000E-01 -4.03175000000E-01

  17  17   1    8 O    -3.24953000000E-01 -2.46285000000E-01 -4.54883000000E-01

  18  18   1    8 O     4.59025000000E-01 -1.29130000000E-01 -4.42065000000E-01

  19  19   1    8 O     3.63031000000E-01  1.20531000000E-01 -4.06279000000E-01

  20  20   1    8 O     2.62476000000E-01 -1.57004000000E-01 -2.32493000000E-01

  21  21   1    8 O     1.73605000000E-01  2.34160000000E-01 -1.53892000000E-01

  22  22   1    8 O    -4.03390000000E-02  3.22801000000E-01 -5.21570000000E-02

  23  23   1    8 O     3.56051000000E-01  5.37480000000E-02 -1.84802000000E-01

  24  24   1    8 O    -3.26569000000E-01  1.64456000000E-01 -2.97211000000E-01

  25  25   1    8 O     2.17519000000E-01 -3.41825000000E-01 -1.23350000000E-01

  26  26   1    8 O    -1.76112000000E-01  6.89250000000E-02 -2.13642000000E-01

  27  27   1    8 O     3.86801000000E-01  4.05231000000E-01 -1.45167000000E-01

  28  28   1    8 O     2.65928000000E-01 -4.80201000000E-01 -2.34268000000E-01

  29  29   1    8 O     4.89340000000E-02 -1.02264000000E-01 -3.00624000000E-01

  30  30   1    8 O     1.47020000000E-02 -1.63297000000E-01 -7.43530000000E-02

  31  31   1    8 O    -1.35240000000E-01  4.95102000000E-01 -2.60732000000E-01

  32  32   1    8 O     4.63496000000E-01 -3.87600000000E-01 -2.04676000000E-01

  33  33   1    8 O    -2.46085000000E-01 -1.02307000000E-01 -3.02353000000E-01

  34  34   1    8 O    -4.61072000000E-01 -3.06890000000E-02 -4.51410000000E-02

  35  35   1    8 O    -4.01562000000E-01 -2.81556000000E-01 -7.74500000000E-03

  36  36   1    8 O    -4.90077000000E-01 -1.44262000000E-01 -2.29328000000E-01

  37  37   1    8 O    -4.15078000000E-01 -2.18618000000E-01 -1.25079000000E-01

  38  38   1    8 O    -4.96260000000E-02  8.61460000000E-02 -1.01600000000E-01

  39  39   1    8 O    -4.48287000000E-01  3.50734000000E-01 -5.31220000000E-02

  40  40   1    8 O    -2.72287000000E-01  1.89418000000E-01 -1.08083000000E-01

  41  41   1    8 O     6.22080000000E-02 -5.09690000000E-02 -1.83840000000E-01

  42  42   1    8 O     1.92745000000E-01  2.52610000000E-02 -8.73780000000E-02

  43  43   1    8 O     3.93683000000E-01 -4.65784000000E-01 -4.35250000000E-02

  44  44   1    8 O     7.56990000000E-02  4.73678000000E-01 -1.60998000000E-01

  45  45   1    8 O     1.13930000000E-01  3.40290000000E-01 -2.64013000000E-01

  46  46   1    8 O    -6.61480000000E-02  2.77764000000E-01 -1.78831000000E-01

  47  47   1    8 O     3.82728000000E-01  9.77000000000E-04 -3.06040000000E-01

  48  48   1    8 O     4.80918000000E-01  3.72109000000E-01 -2.61966000000E-01

  49  49   1    8 O    -3.10547000000E-01  3.62414000000E-01 -2.16657000000E-01

  50  50   1    8 O    -3.08520000000E-01 -3.62146000000E-01 -2.09774000000E-01

  51  51   1    8 O    -1.97671000000E-01  4.85946000000E-01 -1.25063000000E-01

  52  52   1    8 O     7.84710000000E-02 -3.01920000000E-01 -2.21353000000E-01

  53  53   1    8 O    -3.00988000000E-01  4.07142000000E-01 -3.40175000000E-01

  54  54   1    8 O    -4.14380000000E-02 -4.18807000000E-01 -4.45420000000E-02

  55  55   1    8 O     3.70530000000E-01 -2.07151000000E-01 -4.47970000000E-02

  56  56   1    8 O     3.78116000000E-01  1.98981000000E-01 -8.50560000000E-02

  57  57   1   14 SI   -1.82710000000E-02  1.91780000000E-02  4.14770000000E-02

  58  58   1   14 SI    2.55399000000E-01  3.06125000000E-01  1.70800000000E-02

  59  59   1   14 SI    1.38483000000E-01  4.39335000000E-01  8.62940000000E-02

  60  60   1   14 SI    3.97332000000E-01  1.91786000000E-01  8.76980000000E-02

  61  61   1   14 SI    3.08060000000E-02  3.15607000000E-01  1.60853000000E-01

  62  62   1   14 SI    2.81913000000E-01  7.16130000000E-02  1.61093000000E-01

  63  63   1   14 SI    1.53230000000E-01  1.91249000000E-01  2.29031000000E-01

  64  64   1   14 SI    3.95472000000E-01  4.34567000000E-01  2.24854000000E-01

  65  65   1   14 SI    7.14860000000E-02 -3.81503000000E-01  2.20710000000E-02

  66  66   1   14 SI    3.39429000000E-01 -1.33262000000E-01  4.43810000000E-02

  67  67   1   14 SI    1.60181000000E-01 -5.52530000000E-02  9.41380000000E-02

  68  68   1   14 SI    3.99075000000E-01 -3.13577000000E-01  1.01804000000E-01

  69  69   1   14 SI    3.13850000000E-02 -1.82782000000E-01  1.58829000000E-01

  70  70   1   14 SI    2.65968000000E-01 -4.45545000000E-01  1.57679000000E-01

  71  71   1   14 SI    1.55206000000E-01 -3.09398000000E-01  2.24933000000E-01

  72  72   1   14 SI    4.05215000000E-01 -5.70760000000E-02  2.26074000000E-01

  73  73   1   14 SI   -4.84343000000E-01  3.19370000000E-02  2.95460000000E-02

  74  74   1   14 SI   -2.30244000000E-01  3.22423000000E-01  3.21800000000E-02

  75  75   1   14 SI   -3.41428000000E-01  4.51858000000E-01  9.80470000000E-02

  76  76   1   14 SI   -1.02013000000E-01  1.91232000000E-01  9.95740000000E-02

  77  77   1   14 SI   -4.77215000000E-01  3.19282000000E-01  1.55578000000E-01

  78  78   1   14 SI   -2.28535000000E-01  6.27040000000E-02  1.64592000000E-01

  79  79   1   14 SI   -3.50425000000E-01  2.00258000000E-01  2.25358000000E-01

  80  80   1   14 SI   -8.93320000000E-02  4.47517000000E-01  2.24655000000E-01

  81  81   1   14 SI   -4.54799000000E-01 -4.00001000000E-01  3.70280000000E-02

  82  82   1   14 SI   -1.10336000000E-01 -2.52476000000E-01 -5.63060000000E-02

  83  83   1   14 SI   -3.36280000000E-01 -7.24580000000E-02  9.66550000000E-02

  84  84   1   14 SI   -9.72660000000E-02 -2.78875000000E-01  8.31700000000E-02

  85  85   1   14 SI   -4.65749000000E-01 -1.86831000000E-01  1.63224000000E-01

  86  86   1   14 SI   -2.04055000000E-01 -4.16502000000E-01  1.54891000000E-01

  87  87   1   14 SI   -3.35071000000E-01 -3.08583000000E-01  2.24461000000E-01

  88  88   1   14 SI   -9.06330000000E-02 -5.61840000000E-02  2.28284000000E-01

  89  89   1   14 SI    2.67350000000E-02  7.26280000000E-02  2.97551000000E-01

  90  90   1   14 SI    2.77391000000E-01  3.11650000000E-01  2.97644000000E-01

  91  91   1   14 SI    3.81600000000E-02 -4.34578000000E-01  2.93694000000E-01

  92  92   1   14 SI    2.76405000000E-01 -1.79896000000E-01  2.91377000000E-01

  93  93   1   14 SI   -4.73274000000E-01  7.35820000000E-02  2.90765000000E-01

  94  94   1   14 SI   -2.17489000000E-01  3.22458000000E-01  2.89427000000E-01

  95  95   1   14 SI   -4.69441000000E-01 -4.34383000000E-01  2.81719000000E-01

  96  96   1   14 SI   -2.14787000000E-01 -1.86083000000E-01  2.93400000000E-01

  97  97   1   14 SI    1.55489000000E-01  4.38506000000E-01  3.66224000000E-01

  98  98   1   14 SI    4.03188000000E-01  1.85436000000E-01  3.64376000000E-01

  99  99   1   14 SI    2.47650000000E-02  3.15124000000E-01  4.36113000000E-01

 100 100   1   14 SI    2.78224000000E-01  6.75880000000E-02  4.37701000000E-01

 101 101   1   14 SI    1.44341000000E-01  1.91186000000E-01 -4.90598000000E-01

 102 102   1   14 SI    4.38852000000E-01  4.51112000000E-01  4.90139000000E-01

 103 103   1   14 SI    1.60772000000E-01 -4.93410000000E-02  3.61729000000E-01

 104 104   1   14 SI    4.10439000000E-01 -3.12144000000E-01  3.48398000000E-01

 105 105   1   14 SI    3.42650000000E-02 -1.79317000000E-01  4.25358000000E-01

 106 106   1   14 SI    3.00521000000E-01 -4.32476000000E-01  4.21673000000E-01

 107 107   1   14 SI    2.06485000000E-01 -2.70078000000E-01  4.76017000000E-01

 108 108   1   14 SI    3.77379000000E-01 -1.16979000000E-01  4.86384000000E-01

 109 109   1   14 SI   -3.43615000000E-01  4.54002000000E-01  3.49928000000E-01

 110 110   1   14 SI   -1.02301000000E-01  2.01284000000E-01  3.63602000000E-01

 111 111   1   14 SI   -4.62783000000E-01  3.28569000000E-01  4.14515000000E-01

 112 112   1   14 SI   -2.20756000000E-01  5.43560000000E-02  4.26067000000E-01

 113 113   1   14 SI   -3.20668000000E-01  2.67428000000E-01  4.90787000000E-01

 114 114   1   14 SI   -1.48408000000E-01  4.07838000000E-01  4.93890000000E-01

 115 115   1   14 SI   -3.44700000000E-01 -5.21900000000E-02  3.52889000000E-01

 116 116   1   14 SI   -8.57960000000E-02 -3.10682000000E-01  3.59163000000E-01

 117 117   1   14 SI   -4.73294000000E-01 -1.81073000000E-01  4.13501000000E-01

 118 118   1   14 SI   -2.16918000000E-01 -4.35642000000E-01  4.21622000000E-01

 119 119   1   14 SI   -2.95382000000E-01 -2.47686000000E-01  4.66114000000E-01

 120 120   1   14 SI   -8.38430000000E-02 -4.22560000000E-02  4.94904000000E-01

 121 121   1   14 SI    3.65739000000E-01  2.79611000000E-01 -3.98542000000E-01

 122 122   1   14 SI    2.11470000000E-02 -1.44770000000E-02 -3.70678000000E-01

 123 123   1   14 SI    1.56310000000E-01 -2.78987000000E-01 -3.87543000000E-01

 124 124   1   14 SI   -3.68114000000E-01  3.87774000000E-01 -4.17562000000E-01

 125 125   1   14 SI   -1.43558000000E-01  4.92055000000E-01 -3.43595000000E-01

 126 126   1   14 SI    2.95479000000E-01 -3.97200000000E-03 -3.68346000000E-01

 127 127   1   14 SI   -4.42969000000E-01 -2.30519000000E-01 -4.09441000000E-01

 128 128   1   14 SI   -8.53260000000E-02 -2.48434000000E-01 -4.66999000000E-01

 129 129   1   14 SI    2.77695000000E-01  1.29525000000E-01 -1.29560000000E-01

 130 130   1   14 SI   -1.38591000000E-01  4.48965000000E-01 -5.39700000000E-02

 131 131   1   14 SI    3.81544000000E-01 -6.21070000000E-02 -2.36074000000E-01

 132 132   1   14 SI   -2.13171000000E-01  5.14300000000E-02 -2.89223000000E-01

 133 133   1   14 SI    1.62267000000E-01 -4.11039000000E-01 -1.87552000000E-01

 134 134   1   14 SI   -1.60752000000E-01 -2.40842000000E-01 -2.85219000000E-01

 135 135   1   14 SI   -4.34880000000E-01 -2.76164000000E-01 -1.96568000000E-01

 136 136   1   14 SI    3.48169000000E-01 -3.44940000000E-01 -8.72940000000E-02

 137 137   1   14 SI   -1.49956000000E-01  1.58756000000E-01 -1.51508000000E-01

 138 138   1   14 SI    3.85630000000E-02  2.04132000000E-01 -1.76280000000E-02

 139 139   1   14 SI    4.00733000000E-01  3.61957000000E-01 -6.88540000000E-02

 140 140   1   14 SI    7.46410000000E-02  3.27793000000E-01 -1.90254000000E-01

 141 141   1   14 SI    1.11726000000E-01 -1.51027000000E-01 -2.36376000000E-01

 142 142   1   14 SI   -3.61788000000E-01  2.17477000000E-01 -4.11700000000E-02

 143 143   1   14 SI   -3.78134000000E-01  3.14966000000E-01 -2.83282000000E-01

 144 144   1   14 SI    5.57140000000E-02 -2.88060000000E-02 -1.08533000000E-01

 145 145   1   14 SI    1.35226000000E-01  4.30257000000E-01 -3.28286000000E-01

 146 146   1   14 SI   -4.71592000000E-01 -1.82143000000E-01 -5.73240000000E-02

 147 147   1   14 SI    4.06290000000E-01  4.68999000000E-01 -2.14047000000E-01

 148 148   1   14 SI   -2.34066000000E-01  4.95549000000E-01 -2.01702000000E-01

 NUMBER OF SYMMETRY OPERATORS         :    1
 *******************************************************************************
 * GEOMETRY EDITING - INPUT COORDINATES ARE GIVEN IN ANGSTROM         
 *******************************************************************************

 GCALCO - MAX INDICES DIRECT LATTICE VECTOR    18    19     9
 NO.OF VECTORS CREATED 6999 STARS 1061 RMAX   299.36011 BOHR

 GEOMETRY FOR WAVE FUNCTION - DIMENSIONALITY OF THE SYSTEM    3
 (NON PERIODIC DIRECTION: LATTICE PARAMETER FORMALLY SET TO 500)
 *******************************************************************************
 LATTICE PARAMETERS (ANGSTROMS AND DEGREES) - BOHR = 0.5291772083 ANGSTROM
 PRIMITIVE CELL - CENTRING CODE 1/0 VOLUME=  2381.232301 - DENSITY  2.420 g/cm^3
         A              B              C           ALPHA      BETA       GAMMA 
    10.83871400    10.40148000    21.12170000    90.000000  90.000000  90.000000
 *******************************************************************************
 ATOMS IN THE ASYMMETRIC UNIT  148 - ATOMS IN THE UNIT CELL:  148
     ATOM              X/A                 Y/B                 Z/C    
 *******************************************************************************
   1 T   8 O     2.580060000000E-01  3.529690000000E-01 -3.561860000000E-01
   2 T   8 O     1.563100000000E-01 -4.060430000000E-01 -3.401400000000E-01
   3 T   8 O    -4.886480000000E-01  3.121820000000E-01 -3.751810000000E-01
   4 T   8 O    -1.920760000000E-01  4.543710000000E-01 -4.289810000000E-01
   5 T   8 O     1.568090000000E-01  5.639200000000E-02 -3.670570000000E-01
   6 T   8 O    -4.525710000000E-01 -4.963900000000E-01 -4.566980000000E-01
   7 T   8 O    -1.576940000000E-01 -3.473600000000E-01 -3.500960000000E-01
   8 T   8 O     3.530850000000E-01  3.487000000000E-01 -4.683130000000E-01
   9 T   8 O    -3.113110000000E-01  1.084030000000E-01  4.859300000000E-01
  10 T   8 O    -9.898900000000E-02  7.014200000000E-02 -3.417980000000E-01
  11 T   8 O     3.068000000000E-03  4.592000000000E-02 -4.532640000000E-01
  12 T   8 O    -4.477060000000E-01 -2.969760000000E-01 -3.447050000000E-01
  13 T   8 O    -7.415000000000E-03  4.212550000000E-01 -3.573040000000E-01
  14 T   8 O     2.614870000000E-01 -1.641830000000E-01 -3.784210000000E-01
  15 T   8 O     1.702140000000E-01 -3.470950000000E-01 -4.564740000000E-01
  16 T   8 O     2.591600000000E-02 -1.830120000000E-01 -4.031750000000E-01
  17 T   8 O    -3.249530000000E-01 -2.462850000000E-01 -4.548830000000E-01
  18 T   8 O     4.590250000000E-01 -1.291300000000E-01 -4.420650000000E-01
  19 T   8 O     3.630310000000E-01  1.205310000000E-01 -4.062790000000E-01
  20 T   8 O     2.624760000000E-01 -1.570040000000E-01 -2.324930000000E-01
  21 T   8 O     1.736050000000E-01  2.341600000000E-01 -1.538920000000E-01
  22 T   8 O    -4.033900000000E-02  3.228010000000E-01 -5.215700000000E-02
  23 T   8 O     3.560510000000E-01  5.374800000000E-02 -1.848020000000E-01
  24 T   8 O    -3.265690000000E-01  1.644560000000E-01 -2.972110000000E-01
  25 T   8 O     2.175190000000E-01 -3.418250000000E-01 -1.233500000000E-01
  26 T   8 O    -1.761120000000E-01  6.892500000000E-02 -2.136420000000E-01
  27 T   8 O     3.868010000000E-01  4.052310000000E-01 -1.451670000000E-01
  28 T   8 O     2.659280000000E-01 -4.802010000000E-01 -2.342680000000E-01
  29 T   8 O     4.893400000000E-02 -1.022640000000E-01 -3.006240000000E-01
  30 T   8 O     1.470200000000E-02 -1.632970000000E-01 -7.435300000000E-02
  31 T   8 O    -1.352400000000E-01  4.951020000000E-01 -2.607320000000E-01
  32 T   8 O     4.634960000000E-01 -3.876000000000E-01 -2.046760000000E-01
  33 T   8 O    -2.460850000000E-01 -1.023070000000E-01 -3.023530000000E-01
  34 T   8 O    -4.610720000000E-01 -3.068900000000E-02 -4.514100000000E-02
  35 T   8 O    -4.015620000000E-01 -2.815560000000E-01 -7.745000000000E-03
  36 T   8 O    -4.900770000000E-01 -1.442620000000E-01 -2.293280000000E-01
  37 T   8 O    -4.150780000000E-01 -2.186180000000E-01 -1.250790000000E-01
  38 T   8 O    -4.962600000000E-02  8.614600000000E-02 -1.016000000000E-01
  39 T   8 O    -4.482870000000E-01  3.507340000000E-01 -5.312200000000E-02
  40 T   8 O    -2.722870000000E-01  1.894180000000E-01 -1.080830000000E-01
  41 T   8 O     6.220800000000E-02 -5.096900000000E-02 -1.838400000000E-01
  42 T   8 O     1.927450000000E-01  2.526100000000E-02 -8.737800000000E-02
  43 T   8 O     3.936830000000E-01 -4.657840000000E-01 -4.352500000000E-02
  44 T   8 O     7.569900000000E-02  4.736780000000E-01 -1.609980000000E-01
  45 T   8 O     1.139300000000E-01  3.402900000000E-01 -2.640130000000E-01
  46 T   8 O    -6.614800000000E-02  2.777640000000E-01 -1.788310000000E-01
  47 T   8 O     3.827280000000E-01  9.770000000000E-04 -3.060400000000E-01
  48 T   8 O     4.809180000000E-01  3.721090000000E-01 -2.619660000000E-01
  49 T   8 O    -3.105470000000E-01  3.624140000000E-01 -2.166570000000E-01
  50 T   8 O    -3.085200000000E-01 -3.621460000000E-01 -2.097740000000E-01
  51 T   8 O    -1.976710000000E-01  4.859460000000E-01 -1.250630000000E-01
  52 T   8 O     7.847100000000E-02 -3.019200000000E-01 -2.213530000000E-01
  53 T   8 O    -3.009880000000E-01  4.071420000000E-01 -3.401750000000E-01
  54 T   8 O    -4.143800000000E-02 -4.188070000000E-01 -4.454200000000E-02
  55 T   8 O     3.705300000000E-01 -2.071510000000E-01 -4.479700000000E-02
  56 T   8 O     3.781160000000E-01  1.989810000000E-01 -8.505600000000E-02
  57 T  14 SI   -1.827100000000E-02  1.917800000000E-02  4.147700000000E-02
  58 T  14 SI    2.553990000000E-01  3.061250000000E-01  1.708000000000E-02
  59 T  14 SI    1.384830000000E-01  4.393350000000E-01  8.629400000000E-02
  60 T  14 SI    3.973320000000E-01  1.917860000000E-01  8.769800000000E-02
  61 T  14 SI    3.080600000000E-02  3.156070000000E-01  1.608530000000E-01
  62 T  14 SI    2.819130000000E-01  7.161300000000E-02  1.610930000000E-01
  63 T  14 SI    1.532300000000E-01  1.912490000000E-01  2.290310000000E-01
  64 T  14 SI    3.954720000000E-01  4.345670000000E-01  2.248540000000E-01
  65 T  14 SI    7.148600000000E-02 -3.815030000000E-01  2.207100000000E-02
  66 T  14 SI    3.394290000000E-01 -1.332620000000E-01  4.438100000000E-02
  67 T  14 SI    1.601810000000E-01 -5.525300000000E-02  9.413800000000E-02
  68 T  14 SI    3.990750000000E-01 -3.135770000000E-01  1.018040000000E-01
  69 T  14 SI    3.138500000000E-02 -1.827820000000E-01  1.588290000000E-01
  70 T  14 SI    2.659680000000E-01 -4.455450000000E-01  1.576790000000E-01
  71 T  14 SI    1.552060000000E-01 -3.093980000000E-01  2.249330000000E-01
  72 T  14 SI    4.052150000000E-01 -5.707600000000E-02  2.260740000000E-01
  73 T  14 SI   -4.843430000000E-01  3.193700000000E-02  2.954600000000E-02
  74 T  14 SI   -2.302440000000E-01  3.224230000000E-01  3.218000000000E-02
  75 T  14 SI   -3.414280000000E-01  4.518580000000E-01  9.804700000000E-02
  76 T  14 SI   -1.020130000000E-01  1.912320000000E-01  9.957400000000E-02
  77 T  14 SI   -4.772150000000E-01  3.192820000000E-01  1.555780000000E-01
  78 T  14 SI   -2.285350000000E-01  6.270400000000E-02  1.645920000000E-01
  79 T  14 SI   -3.504250000000E-01  2.002580000000E-01  2.253580000000E-01
  80 T  14 SI   -8.933200000000E-02  4.475170000000E-01  2.246550000000E-01
  81 T  14 SI   -4.547990000000E-01 -4.000010000000E-01  3.702800000000E-02
  82 T  14 SI   -1.103360000000E-01 -2.524760000000E-01 -5.630600000000E-02
  83 T  14 SI   -3.362800000000E-01 -7.245800000000E-02  9.665500000000E-02
  84 T  14 SI   -9.726600000000E-02 -2.788750000000E-01  8.317000000000E-02
  85 T  14 SI   -4.657490000000E-01 -1.868310000000E-01  1.632240000000E-01
  86 T  14 SI   -2.040550000000E-01 -4.165020000000E-01  1.548910000000E-01
  87 T  14 SI   -3.350710000000E-01 -3.085830000000E-01  2.244610000000E-01
  88 T  14 SI   -9.063300000000E-02 -5.618400000000E-02  2.282840000000E-01
  89 T  14 SI    2.673500000000E-02  7.262800000000E-02  2.975510000000E-01
  90 T  14 SI    2.773910000000E-01  3.116500000000E-01  2.976440000000E-01
  91 T  14 SI    3.816000000000E-02 -4.345780000000E-01  2.936940000000E-01
  92 T  14 SI    2.764050000000E-01 -1.798960000000E-01  2.913770000000E-01
  93 T  14 SI   -4.732740000000E-01  7.358200000000E-02  2.907650000000E-01
  94 T  14 SI   -2.174890000000E-01  3.224580000000E-01  2.894270000000E-01
  95 T  14 SI   -4.694410000000E-01 -4.343830000000E-01  2.817190000000E-01
  96 T  14 SI   -2.147870000000E-01 -1.860830000000E-01  2.934000000000E-01
  97 T  14 SI    1.554890000000E-01  4.385060000000E-01  3.662240000000E-01
  98 T  14 SI    4.031880000000E-01  1.854360000000E-01  3.643760000000E-01
  99 T  14 SI    2.476500000000E-02  3.151240000000E-01  4.361130000000E-01
 100 T  14 SI    2.782240000000E-01  6.758800000000E-02  4.377010000000E-01
 101 T  14 SI    1.443410000000E-01  1.911860000000E-01 -4.905980000000E-01
 102 T  14 SI    4.388520000000E-01  4.511120000000E-01  4.901390000000E-01
 103 T  14 SI    1.607720000000E-01 -4.934100000000E-02  3.617290000000E-01
 104 T  14 SI    4.104390000000E-01 -3.121440000000E-01  3.483980000000E-01
 105 T  14 SI    3.426500000000E-02 -1.793170000000E-01  4.253580000000E-01
 106 T  14 SI    3.005210000000E-01 -4.324760000000E-01  4.216730000000E-01
 107 T  14 SI    2.064850000000E-01 -2.700780000000E-01  4.760170000000E-01
 108 T  14 SI    3.773790000000E-01 -1.169790000000E-01  4.863840000000E-01
 109 T  14 SI   -3.436150000000E-01  4.540020000000E-01  3.499280000000E-01
 110 T  14 SI   -1.023010000000E-01  2.012840000000E-01  3.636020000000E-01
 111 T  14 SI   -4.627830000000E-01  3.285690000000E-01  4.145150000000E-01
 112 T  14 SI   -2.207560000000E-01  5.435600000000E-02  4.260670000000E-01
 113 T  14 SI   -3.206680000000E-01  2.674280000000E-01  4.907870000000E-01
 114 T  14 SI   -1.484080000000E-01  4.078380000000E-01  4.938900000000E-01
 115 T  14 SI   -3.447000000000E-01 -5.219000000000E-02  3.528890000000E-01
 116 T  14 SI   -8.579600000000E-02 -3.106820000000E-01  3.591630000000E-01
 117 T  14 SI   -4.732940000000E-01 -1.810730000000E-01  4.135010000000E-01
 118 T  14 SI   -2.169180000000E-01 -4.356420000000E-01  4.216220000000E-01
 119 T  14 SI   -2.953820000000E-01 -2.476860000000E-01  4.661140000000E-01
 120 T  14 SI   -8.384300000000E-02 -4.225600000000E-02  4.949040000000E-01
 121 T  14 SI    3.657390000000E-01  2.796110000000E-01 -3.985420000000E-01
 122 T  14 SI    2.114700000000E-02 -1.447700000000E-02 -3.706780000000E-01
 123 T  14 SI    1.563100000000E-01 -2.789870000000E-01 -3.875430000000E-01
 124 T  14 SI   -3.681140000000E-01  3.877740000000E-01 -4.175620000000E-01
 125 T  14 SI   -1.435580000000E-01  4.920550000000E-01 -3.435950000000E-01
 126 T  14 SI    2.954790000000E-01 -3.972000000000E-03 -3.683460000000E-01
 127 T  14 SI   -4.429690000000E-01 -2.305190000000E-01 -4.094410000000E-01
 128 T  14 SI   -8.532600000000E-02 -2.484340000000E-01 -4.669990000000E-01
 129 T  14 SI    2.776950000000E-01  1.295250000000E-01 -1.295600000000E-01
 130 T  14 SI   -1.385910000000E-01  4.489650000000E-01 -5.397000000000E-02
 131 T  14 SI    3.815440000000E-01 -6.210700000000E-02 -2.360740000000E-01
 132 T  14 SI   -2.131710000000E-01  5.143000000000E-02 -2.892230000000E-01
 133 T  14 SI    1.622670000000E-01 -4.110390000000E-01 -1.875520000000E-01
 134 T  14 SI   -1.607520000000E-01 -2.408420000000E-01 -2.852190000000E-01
 135 T  14 SI   -4.348800000000E-01 -2.761640000000E-01 -1.965680000000E-01
 136 T  14 SI    3.481690000000E-01 -3.449400000000E-01 -8.729400000000E-02
 137 T  14 SI   -1.499560000000E-01  1.587560000000E-01 -1.515080000000E-01
 138 T  14 SI    3.856300000000E-02  2.041320000000E-01 -1.762800000000E-02
 139 T  14 SI    4.007330000000E-01  3.619570000000E-01 -6.885400000000E-02
 140 T  14 SI    7.464100000000E-02  3.277930000000E-01 -1.902540000000E-01
 141 T  14 SI    1.117260000000E-01 -1.510270000000E-01 -2.363760000000E-01
 142 T  14 SI   -3.617880000000E-01  2.174770000000E-01 -4.117000000000E-02
 143 T  14 SI   -3.781340000000E-01  3.149660000000E-01 -2.832820000000E-01
 144 T  14 SI    5.571400000000E-02 -2.880600000000E-02 -1.085330000000E-01
 145 T  14 SI    1.352260000000E-01  4.302570000000E-01 -3.282860000000E-01
 146 T  14 SI   -4.715920000000E-01 -1.821430000000E-01 -5.732400000000E-02
 147 T  14 SI    4.062900000000E-01  4.689990000000E-01 -2.140470000000E-01
 148 T  14 SI   -2.340660000000E-01  4.955490000000E-01 -2.017020000000E-01

 T = ATOM BELONGING TO THE ASYMMETRIC UNIT

 ****   1 SYMMOPS - TRANSLATORS IN FRACTIONAL UNITS
  V INV                   ROTATION MATRICES                       TRANSLATOR
  1  1  1.00  0.00  0.00  0.00  1.00  0.00  0.00  0.00  1.00    0.00  0.00  0.00

 DIRECT LATTICE VECTORS CARTESIAN COMPONENTS (ANGSTROM)
          X                    Y                    Z
   0.108387140000E+02   0.663679820349E-15   0.000000000000E+00
   0.000000000000E+00   0.104014800000E+02   0.000000000000E+00
   0.129333111488E-14   0.129333111488E-14   0.211217000000E+02


 CARTESIAN COORDINATES - PRIMITIVE CELL
 *******************************************************************************
 *      ATOM          X(ANGSTROM)         Y(ANGSTROM)         Z(ANGSTROM)
 *******************************************************************************
   1     8 O     2.796453244284E+00  3.671399994120E+00 -7.523253836200E+00
   2     8 O     1.694199385340E+00 -4.223448143640E+00 -7.184335038000E+00
   3     8 O    -5.296315918672E+00  3.247154829360E+00 -7.924460527700E+00
   4     8 O    -2.081856830264E+00  4.726130869080E+00 -9.060807987700E+00
   5     8 O     1.699607903626E+00  5.865602601600E-01 -7.752867836900E+00
   6     8 O    -4.905287633694E+00 -5.163190657200E+00 -9.646238146600E+00
   7     8 O    -1.709200165516E+00 -3.613058092800E+00 -7.394622683200E+00
   8     8 O     3.826987332690E+00  3.626996076000E+00 -9.891566692100E+00
   9     8 O    -3.374210894054E+00  1.127551636440E+00  1.026366768100E+01
  10     8 O    -1.072913460146E+00  7.295806101600E-01 -7.219354816600E+00
  11     8 O     3.325317455200E-02  4.776359616000E-01 -9.573706228800E+00
  12     8 O    -4.852557290084E+00 -3.088989924480E+00 -7.280755598500E+00
  13     8 O    -8.036906431000E-02  4.381675457400E+00 -7.546867896800E+00
  14     8 O     2.834182807718E+00 -1.707746190840E+00 -7.992894835700E+00
  15     8 O     1.844900864796E+00 -3.610301700600E+00 -9.641506885800E+00
  16     8 O     2.808961120240E-01 -1.903595657760E+00 -8.515741397500E+00
  17     8 O    -3.522072630442E+00 -2.561728501800E+00 -9.607902261100E+00
  18     8 O     4.975240693850E+00 -1.343143112400E+00 -9.337164310500E+00
  19     8 O     3.934789182134E+00  1.253700785880E+00 -8.581303154300E+00
  20     8 O     2.844902295864E+00 -1.633073965920E+00 -4.910647398100E+00
  21     8 O     1.881654943970E+00  2.435610556800E+00 -3.250460656400E+00
  22     8 O    -4.372228840460E-01  3.357608145480E+00 -1.101644506900E+00
  23     8 O     3.859134958414E+00  5.590587470400E-01 -3.903332403400E+00
  24     8 O    -3.539587992266E+00  1.710585794880E+00 -6.277601578700E+00
  25     8 O     2.357626230566E+00 -3.555485901000E+00 -2.605361695000E+00
  26     8 O    -1.908827599968E+00  7.169220090000E-01 -4.512482231400E+00
  27     8 O     4.192425413914E+00  4.215002141880E+00 -3.066173823900E+00
  28     8 O     2.882317536592E+00 -4.994801097480E+00 -4.948138415600E+00
  29     8 O     5.303816308760E-01 -1.063696950720E+00 -6.349689940800E+00
  30     8 O     1.593507732280E-01 -1.698530479560E+00 -1.570461760100E+00
  31     8 O    -1.465827681360E+00  5.149793550960E+00 -5.507103084400E+00
  32     8 O     5.023700584144E+00 -4.031613648000E+00 -4.323105069200E+00
  33     8 O    -2.667244934690E+00 -1.064144214360E+00 -6.386209360100E+00
  34     8 O    -4.997427541408E+00 -3.192110197200E-01 -9.534546597000E-01
  35     8 O    -4.352415671268E+00 -2.928599102880E+00 -1.635875665000E-01
  36     8 O    -5.311804440978E+00 -1.500538307760E+00 -4.843797217600E+00
  37     8 O    -4.498911729692E+00 -2.273950754640E+00 -2.641881114300E+00
  38     8 O    -5.378820209640E-01  8.960458960800E-01 -2.145964720000E+00
  39     8 O    -4.858854582918E+00  3.648152686320E+00 -1.122026947400E+00
  40     8 O    -2.951240918918E+00  1.970227538640E+00 -2.282896701100E+00
  41     8 O     6.742547205120E-01 -5.301530341200E-01 -3.883013328000E+00
  42     8 O     2.089107929930E+00  2.627517862800E-01 -1.845571902600E+00
  43     8 O     4.267017443662E+00 -4.844842960320E+00 -9.193219925000E-01
  44     8 O     8.204798110860E-01  4.926952243440E+00 -3.400551456600E+00
  45     8 O     1.234854686020E+00  3.539519629200E+00 -5.576403382100E+00
  46     8 O    -7.169592536720E-01  2.889156690720E+00 -3.777214732700E+00
  47     8 O     4.148279331792E+00  1.016224596000E-02 -6.464085068000E+00
  48     8 O     5.212532659452E+00  3.870484321320E+00 -5.533167262200E+00
  49     8 O    -3.365930116558E+00  3.769641972720E+00 -4.576164156900E+00
  50     8 O    -3.343960043280E+00 -3.766854376080E+00 -4.430783495800E+00
  51     8 O    -2.142499435094E+00  5.054557600080E+00 -2.641543167100E+00
  52     8 O     8.505247262940E-01 -3.140414841600E+00 -4.675351660100E+00
  53     8 O    -3.262322849432E+00  4.234879370160E+00 -7.185074297500E+00
  54     8 O    -4.491346307320E-01 -4.356212634360E+00 -9.408027614000E-01
  55     8 O     4.016068698420E+00 -2.154676983480E+00 -9.461887949000E-01
  56     8 O     4.098291182824E+00  2.069696891880E+00 -1.796527315200E+00
  57    14 SI   -1.980341434940E-01  1.994795834400E-01  8.760647509000E-01
  58    14 SI    2.768196716886E+00  3.184153065000E+00  3.607586360000E-01
  59    14 SI    1.500977630862E+00  4.569734215800E+00  1.822675979800E+00
  60    14 SI    4.306567911048E+00  1.994858243280E+00  1.852330846600E+00
  61    14 SI    3.338974234840E-01  3.282779898360E+00  3.397488810100E+00
  62    14 SI    3.055574379882E+00  7.448811872400E-01  3.402558018100E+00
  63    14 SI    1.660816146220E+00  1.989272648520E+00  4.837524072700E+00
  64    14 SI    4.286407903008E+00  4.520139959160E+00  4.749298731800E+00
  65    14 SI    7.748163090040E-01 -3.968195824440E+00  4.661770407000E-01
  66    14 SI    3.678973854306E+00 -1.386122027760E+00  9.374021677000E-01
  67    14 SI    1.736156047234E+00 -5.747129744400E-01  1.988354594600E+00
  68    14 SI    4.325459789550E+00 -3.261664893960E+00  2.150273546800E+00
  69    14 SI    3.401730388900E-01 -1.901203317360E+00  3.354738489300E+00
  70    14 SI    2.882751085152E+00 -4.634327406600E+00  3.330448534300E+00
  71    14 SI    1.682233445084E+00 -3.218197109040E+00  4.750967346100E+00
  72    14 SI    4.392009493510E+00 -5.936748724800E-01  4.775067205800E+00
  73    14 SI   -5.249655254902E+00  3.321920667600E-01  6.240617482000E-01
  74    14 SI   -2.495548866216E+00  3.353676386040E+00  6.796963060000E-01
  75    14 SI   -3.700640443592E+00  4.699991949840E+00  2.070919319900E+00
  76    14 SI   -1.105689731282E+00  1.989095823360E+00  2.103172155800E+00
  77    14 SI   -5.172396901510E+00  3.321005337360E+00  3.286071842600E+00
  78    14 SI   -2.477025503990E+00  6.522144019200E-01  3.476462846400E+00
  79    14 SI   -3.798156353450E+00  2.082979581840E+00  4.759944068600E+00
  80    14 SI   -9.682439990480E-01  4.654839125160E+00  4.745095513500E+00
  81    14 SI   -4.929436288486E+00 -4.160602401480E+00  7.820943076000E-01
  82    14 SI   -1.195900347904E+00 -2.626124064480E+00 -1.189278440200E+00
  83    14 SI   -3.644842743920E+00 -7.536704378400E-01  2.041517913500E+00
  84    14 SI   -1.054238355924E+00 -2.900712735000E+00  1.756691789000E+00
  85    14 SI   -5.048120206786E+00 -1.943318909880E+00  3.447568360800E+00
  86    14 SI   -2.211693785270E+00 -4.332237222960E+00  3.271561234700E+00
  87    14 SI   -3.631738738694E+00 -3.209719902840E+00  4.740997903700E+00
  88    14 SI   -9.823451659620E-01 -5.843967523200E-01  4.821746162800E+00
  89    14 SI    2.897730187900E-01  7.554386894400E-01  6.284782956700E+00
  90    14 SI    3.006561715174E+00  3.241621242000E+00  6.286747274800E+00
  91    14 SI    4.136053262400E-01 -4.520254375440E+00  6.203316559800E+00
  92    14 SI    2.995874743170E+00 -1.871184646080E+00  6.154377580900E+00
  93    14 SI   -5.129681529636E+00  7.653617013600E-01  6.141451100500E+00
  94    14 SI   -2.357301069146E+00  3.354040437840E+00  6.113190265900E+00
  95    14 SI   -5.088136738874E+00 -4.518226086840E+00  5.950384202300E+00
  96    14 SI   -2.328014863918E+00 -1.935538602840E+00  6.197106780000E+00
  97    14 SI    1.685300801146E+00  4.561111388880E+00  7.735273460800E+00
  98    14 SI    4.370039420232E+00  1.928808845280E+00  7.696240559200E+00
  99    14 SI    2.684207522100E-01  3.277755983520E+00  9.211447952100E+00
 100    14 SI    3.015590363936E+00  7.030152302400E-01  9.244989211700E+00
 101    14 SI    1.564470817474E+00  1.988617355280E+00 -1.036226377660E+01
 102    14 SI    4.756591316328E+00  4.692232445760E+00  1.035256891630E+01
 103    14 SI    1.742561727208E+00 -5.132194246800E-01  7.640331419300E+00
 104    14 SI    4.448630935446E+00 -3.246759573120E+00  7.358758036600E+00
 105    14 SI    3.713885352100E-01 -1.865162189160E+00  8.984284068600E+00
 106    14 SI    3.257261169994E+00 -4.498390464480E+00  8.906450604100E+00
 107    14 SI    2.238031860290E+00 -2.809210915440E+00  1.005428826890E+01
 108    14 SI    4.090303050606E+00 -1.216754728920E+00  1.027325693280E+01
 109    14 SI   -3.724344711110E+00  4.722292722960E+00  7.391074237600E+00
 110    14 SI   -1.108811280914E+00  2.093651500320E+00  7.679892363400E+00
 111    14 SI   -5.015972581062E+00  3.417603882120E+00  8.755261475500E+00
 112    14 SI   -2.392711147784E+00  5.653828468800E-01  8.999259353900E+00
 113    14 SI   -3.475628740952E+00  2.781646993440E+00  1.036625577790E+01
 114    14 SI   -1.608551867312E+00  4.242118800240E+00  1.043179641300E+01
 115    14 SI   -3.736104715800E+00 -5.428532412000E-01  7.453615591300E+00
 116    14 SI   -9.299183063440E-01 -3.231552609360E+00  7.586133137100E+00
 117    14 SI   -5.129898303916E+00 -1.883427188040E+00  8.733844071700E+00
 118    14 SI   -2.351112163452E+00 -4.531321550160E+00  8.905373397400E+00
 119    14 SI   -3.201561018748E+00 -2.576300975280E+00  9.845120073800E+00
 120    14 SI   -9.087502979020E-01 -4.395249388800E-01  1.045321381680E+01
 121    14 SI    3.964140419646E+00  2.908368224280E+00 -8.417884561400E+00
 122    14 SI    2.292062849580E-01 -1.505822259600E-01 -7.829349512600E+00
 123    14 SI    1.694199385340E+00 -2.901877700760E+00 -8.185566983100E+00
 124    14 SI   -3.989882365396E+00  4.033423505520E+00 -8.819619295400E+00
 125    14 SI   -1.555984104412E+00  5.118100241400E+00 -7.257310511500E+00
 126    14 SI    3.202612374006E+00 -4.131467856000E-02 -7.780093708200E+00
 127    14 SI   -4.801214301866E+00 -2.397738768120E+00 -8.648089969700E+00
 128    14 SI   -9.248241107640E-01 -2.584081282320E+00 -9.863812778300E+00
 129    14 SI    3.009856684230E+00  1.347251697000E+00 -2.736527452000E+00
 130    14 SI   -1.502148211974E+00  4.669900468200E+00 -1.139938149000E+00
 131    14 SI    4.135446294416E+00 -6.460047183600E-01 -4.986284205800E+00
 132    14 SI   -2.310499502094E+00  5.349481164000E-01 -6.108881439100E+00
 133    14 SI    1.758765604638E+00 -4.275413937720E+00 -3.961417078400E+00
 134    14 SI   -1.742344952928E+00 -2.505113246160E+00 -6.024310152300E+00
 135    14 SI   -4.713539944320E+00 -2.872514322720E+00 -4.151850325600E+00
 136    14 SI    3.773704214666E+00 -3.587886511200E+00 -1.843797679800E+00
 137    14 SI   -1.625330196584E+00  1.651297358880E+00 -3.200106523600E+00
 138    14 SI    4.179733279820E-01  2.123274915360E+00 -3.723333276000E-01
 139    14 SI    4.343430377362E+00  3.764888496360E+00 -1.454313531800E+00
 140    14 SI    8.090124516740E-01  3.409532333640E+00 -4.018487911800E+00
 141    14 SI    1.210966160364E+00 -1.570904319960E+00 -4.992662959200E+00
 142    14 SI   -3.921316660632E+00  2.262082665960E+00 -8.695803890000E-01
 143    14 SI   -4.098486279676E+00  3.276112549680E+00 -5.983397419400E+00
 144    14 SI    6.038681117960E-01 -2.996250328800E-01 -2.292401466100E+00
 145    14 SI    1.465675939364E+00  4.475309580360E+00 -6.933958406200E+00
 146    14 SI   -5.111450812688E+00 -1.894556771640E+00 -1.210780330800E+00
 147    14 SI    4.403661111060E+00  4.878283718520E+00 -4.521036519900E+00
 148    14 SI   -2.536974431124E+00  5.154443012520E+00 -4.260289133400E+00

 *******************************************************************************
 LOCAL ATOMIC FUNCTIONS BASIS SET
 *******************************************************************************
   ATOM  X(AU)  Y(AU)  Z(AU)    NO. TYPE  EXPONENT  S COEF   P COEF   D/F/G COEF
 *******************************************************************************
   1 O   5.285  6.938-14.217
                                  1 S  
                                         8.020E+03 1.080E-03 0.000E+00 0.000E+00
                                         1.338E+03 8.040E-03 0.000E+00 0.000E+00
                                         2.554E+02 5.324E-02 0.000E+00 0.000E+00
                                         6.922E+01 1.681E-01 0.000E+00 0.000E+00
                                         2.390E+01 3.581E-01 0.000E+00 0.000E+00
                                         9.264E+00 3.855E-01 0.000E+00 0.000E+00
                                         3.851E+00 1.468E-01 0.000E+00 0.000E+00
                                         1.212E+00 7.280E-02 0.000E+00 0.000E+00
                             2-   5 SP 
                                         4.943E+01-8.830E-03 9.580E-03 0.000E+00
                                         1.047E+01-9.150E-02 6.960E-02 0.000E+00
                                         3.235E+00-4.020E-02 2.065E-01 0.000E+00
                                         1.217E+00 3.790E-01 3.470E-01 0.000E+00
                             6-   9 SP 
                                         4.763E-01 1.000E+00 1.000E+00 0.000E+00
                            10-  13 SP 
                                         1.900E-01 1.000E+00 1.000E+00 0.000E+00
   2 O   3.202 -7.981-13.576
   3 O -10.009  6.136-14.975
   4 O  -3.934  8.931-17.122
   5 O   3.212  1.108-14.651
   6 O  -9.270 -9.757-18.229
   7 O  -3.230 -6.828-13.974
   8 O   7.232  6.854-18.692
   9 O  -6.376  2.131 19.396
  10 O  -2.028  1.379-13.643
  11 O   0.063  0.903-18.092
  12 O  -9.170 -5.837-13.759
  13 O  -0.152  8.280-14.262
  14 O   5.356 -3.227-15.104
  15 O   3.486 -6.822-18.220
  16 O   0.531 -3.597-16.092
  17 O  -6.656 -4.841-18.156
  18 O   9.402 -2.538-17.645
  19 O   7.436  2.369-16.216
  20 O   5.376 -3.086 -9.280
  21 O   3.556  4.603 -6.142
  22 O  -0.826  6.345 -2.082
  23 O   7.293  1.056 -7.376
  24 O  -6.689  3.233-11.863
  25 O   4.455 -6.719 -4.923
  26 O  -3.607  1.355 -8.527
  27 O   7.923  7.965 -5.794
  28 O   5.447 -9.439 -9.351
  29 O   1.002 -2.010-11.999
  30 O   0.301 -3.210 -2.968
  31 O  -2.770  9.732-10.407
  32 O   9.493 -7.619 -8.169
  33 O  -5.040 -2.011-12.068
  34 O  -9.444 -0.603 -1.802
  35 O  -8.225 -5.534 -0.309
  36 O -10.038 -2.836 -9.153
  37 O  -8.502 -4.297 -4.992
  38 O  -1.016  1.693 -4.055
  39 O  -9.182  6.894 -2.120
  40 O  -5.577  3.723 -4.314
  41 O   1.274 -1.002 -7.338
  42 O   3.948  0.497 -3.488
  43 O   8.063 -9.155 -1.737
  44 O   1.550  9.311 -6.426
  45 O   2.334  6.689-10.538
  46 O  -1.355  5.460 -7.138
  47 O   7.839  0.019-12.215
  48 O   9.850  7.314-10.456
  49 O  -6.361  7.124 -8.648
  50 O  -6.319 -7.118 -8.373
  51 O  -4.049  9.552 -4.992
  52 O   1.607 -5.935 -8.835
  53 O  -6.165  8.003-13.578
  54 O  -0.849 -8.232 -1.778
  55 O   7.589 -4.072 -1.788
  56 O   7.745  3.911 -3.395
  57 SI -0.374  0.377  1.656
                                729 S  
                                         8.765E+04 2.370E-04 0.000E+00 0.000E+00
                                         1.285E+04 1.920E-03 0.000E+00 0.000E+00
                                         2.786E+03 1.090E-02 0.000E+00 0.000E+00
                                         7.280E+02 4.960E-02 0.000E+00 0.000E+00
                                         2.195E+02 1.668E-01 0.000E+00 0.000E+00
                                         7.590E+01 3.630E-01 0.000E+00 0.000E+00
                                         2.946E+01 4.051E-01 0.000E+00 0.000E+00
                                         1.199E+01 1.504E-01 0.000E+00 0.000E+00
                           730- 733 SP 
                                         1.660E+02-8.840E-03 9.090E-03 0.000E+00
                                         3.937E+01-8.590E-02 6.010E-02 0.000E+00
                                         1.271E+01-7.120E-02 1.952E-01 0.000E+00
                                         4.718E+00 4.147E-01 3.384E-01 0.000E+00
                                         1.848E+00 6.168E-01 3.006E-01 0.000E+00
                                         7.365E-01 1.154E-01 6.480E-02 0.000E+00
                           734- 737 SP 
                                         4.175E+00-1.990E-02-8.700E-03 0.000E+00
                                         1.447E+00-1.864E-01-4.380E-03 0.000E+00
                                         5.023E-01 9.670E-02 2.207E-01 0.000E+00
                           738- 741 SP 
                                         3.220E-01 1.000E+00 1.000E+00 0.000E+00
                           742- 745 SP 
                                         1.300E-01 1.000E+00 1.000E+00 0.000E+00
                           746- 750 D  
                                         6.000E-01 0.000E+00 0.000E+00 1.000E+00
  58 SI  5.231  6.017  0.682
  59 SI  2.836  8.636  3.444
  60 SI  8.138  3.770  3.500
  61 SI  0.631  6.204  6.420
  62 SI  5.774  1.408  6.430
  63 SI  3.138  3.759  9.142
  64 SI  8.100  8.542  8.975
  65 SI  1.464 -7.499  0.881
  66 SI  6.952 -2.619  1.771
  67 SI  3.281 -1.086  3.757
  68 SI  8.174 -6.164  4.063
  69 SI  0.643 -3.593  6.340
  70 SI  5.448 -8.758  6.294
  71 SI  3.179 -6.082  8.978
  72 SI  8.300 -1.122  9.024
  73 SI -9.920  0.628  1.179
  74 SI -4.716  6.338  1.284
  75 SI -6.993  8.882  3.913
  76 SI -2.089  3.759  3.974
  77 SI -9.774  6.276  6.210
  78 SI -4.681  1.233  6.570
  79 SI -7.177  3.936  8.995
  80 SI -1.830  8.796  8.967
  81 SI -9.315 -7.862  1.478
  82 SI -2.260 -4.963 -2.247
  83 SI -6.888 -1.424  3.858
  84 SI -1.992 -5.482  3.320
  85 SI -9.540 -3.672  6.515
  86 SI -4.179 -8.187  6.182
  87 SI -6.863 -6.065  8.959
  88 SI -1.856 -1.104  9.112
  89 SI  0.548  1.428 11.877
  90 SI  5.682  6.126 11.880
  91 SI  0.782 -8.542 11.723
  92 SI  5.661 -3.536 11.630
  93 SI -9.694  1.446 11.606
  94 SI -4.455  6.338 11.552
  95 SI -9.615 -8.538 11.245
  96 SI -4.399 -3.658 11.711
  97 SI  3.185  8.619 14.618
  98 SI  8.258  3.645 14.544
  99 SI  0.507  6.194 17.407
 100 SI  5.699  1.329 17.470
 101 SI  2.956  3.758-19.582
 102 SI  8.989  8.867 19.564
 103 SI  3.293 -0.970 14.438
 104 SI  8.407 -6.135 13.906
 105 SI  0.702 -3.525 16.978
 106 SI  6.155 -8.501 16.831
 107 SI  4.229 -5.309 19.000
 108 SI  7.730 -2.299 19.414
 109 SI -7.038  8.924 13.967
 110 SI -2.095  3.956 14.513
 111 SI -9.479  6.458 16.545
 112 SI -4.522  1.068 17.006
 113 SI -6.568  5.257 19.589
 114 SI -3.040  8.016 19.713
 115 SI -7.060 -1.026 14.085
 116 SI -1.757 -6.107 14.336
 117 SI -9.694 -3.559 16.505
 118 SI -4.443 -8.563 16.829
 119 SI -6.050 -4.869 18.605
 120 SI -1.717 -0.831 19.754
 121 SI  7.491  5.496-15.907
 122 SI  0.433 -0.285-14.795
 123 SI  3.202 -5.484-15.468
 124 SI -7.540  7.622-16.667
 125 SI -2.940  9.672-13.714
 126 SI  6.052 -0.078-14.702
 127 SI -9.073 -4.531-16.343
 128 SI -1.748 -4.883-18.640
 129 SI  5.688  2.546 -5.171
 130 SI -2.839  8.825 -2.154
 131 SI  7.815 -1.221 -9.423
 132 SI -4.366  1.011-11.544
 133 SI  3.324 -8.079 -7.486
 134 SI -3.293 -4.734-11.384
 135 SI -8.907 -5.428 -7.846
 136 SI  7.131 -6.780 -3.484
 137 SI -3.071  3.120 -6.047
 138 SI  0.790  4.012 -0.704
 139 SI  8.208  7.115 -2.748
 140 SI  1.529  6.443 -7.594
 141 SI  2.288 -2.969 -9.435
 142 SI -7.410  4.275 -1.643
 143 SI -7.745  6.191-11.307
 144 SI  1.141 -0.566 -4.332
 145 SI  2.770  8.457-13.103
 146 SI -9.659 -3.580 -2.288
 147 SI  8.322  9.219 -8.544
 148 SI -4.794  9.740 -8.051
 INFORMATION **** TOLINTEG **** COULOMB AND EXCHANGE SERIES TOLERANCES MODIFIED
 INFORMATION **** READM2 **** FULL DIRECT SCF (MONO AND BIEL INT) SELECTED
 INFORMATION **** SMEAR **** FERMI SMEARING ACTIVE
 FERMI SMEARING - TEMPERATURE SMEARING OF FERMI SURFACE  0.1000E-12
 INFORMATION **** MAXCYCLE **** MAX NUMBER OF SCF CYCLES SET TO         250

 MODIFIED BROYDEN MIXING OF THE FOCK MATRIX
 WO PARAMETER(D.D. Johnson, PRB38, 12807,(1988)             1.0000E-04
 % OF FOCK/KS MATRICES MIXING WHEN BROYDEN METHOD IS ON             90
 NUMBER OF SCF ITERATIONS AFTER WHICH BROYDEN METHOD IS ACTIVE      40
 INFORMATION **** TOLDEE **** SCF TOL ON TOTAL ENERGY SET TO           7
 *******************************************************************************
 N. OF ATOMS PER CELL      148  COULOMB OVERLAP TOL         (T1) 10** -8
 NUMBER OF SHELLS          776  COULOMB PENETRATION TOL     (T2) 10** -8
 NUMBER OF AO             2752  EXCHANGE OVERLAP TOL        (T3) 10** -8
 N. OF ELECTRONS PER CELL 1736  EXCHANGE PSEUDO OVP (F(G))  (T4) 10** -8
 CORE ELECTRONS PER CELL  1032  EXCHANGE PSEUDO OVP (P(G))  (T5) 10**-16
 N. OF SYMMETRY OPERATORS    1  POLE ORDER IN MONO ZONE                4
 *******************************************************************************
 TYPE OF CALCULATION :  UNRESTRICTED OPEN SHELL
 KOHN-SHAM HAMILTONIAN

 (EXCHANGE)[CORRELATION] FUNCTIONAL:(BECKE)[LEE-YANG-PARR]

 NON-LOCAL WEIGHTING FACTOR (EXCHANGE) =           0.9000
 NON-LOCAL WEIGHTING FACTOR [CORRELATION] =        0.8100

 HYBRID EXCHANGE - PERCENTAGE OF FOCK EXCHANGE     5.0000

 SPIN POLARIZED DFT SELECTED

 CAPPA:IS1  2;IS2  2;IS3  2; K PTS MONK NET    8; SYMMOPS: K SPACE  2;G SPACE  1

 *******************************************************************************
 MAX NUMBER OF SCF CYCLES     250  CONVERGENCE ON DELTAP        10**-17
 WEIGHT OF F(I) IN F(I+1)      95% CONVERGENCE ON ENERGY        10**- 7
 SHRINK. FACT.(MONKH.)    2  2  2  NUMBER OF K POINTS IN THE IBZ      8
 SHRINKING FACTOR(GILAT NET)    2  NUMBER OF K POINTS(GILAT NET)      8
 *******************************************************************************
 *** K POINTS COORDINATES (OBLIQUE COORDINATES IN UNITS OF IS =  2)
   1-R(  0  0  0)   2-R(  1  0  0)   3-R(  0  1  0)   4-R(  1  1  0)
   5-R(  0  0  1)   6-R(  1  0  1)   7-R(  0  1  1)   8-R(  1  1  1)

 DIRECT LATTICE VECTORS COMPON. (A.U.)     RECIP. LATTICE VECTORS COMPON. (A.U.) 
        X            Y            Z              X            Y            Z
   20.4822011    0.0000000    0.0000000      0.3067632    0.0000000    0.0000000
    0.0000000   19.6559486    0.0000000      0.0000000    0.3196582    0.0000000
    0.0000000    0.0000000   39.9142285      0.0000000    0.0000000    0.1574172

 DISK SPACE FOR EIGENVECTORS (FTN 10)   60588032 REALS

 SYMMETRY ADAPTION OF THE BLOCH FUNCTIONS DISABLED
 TTTTTTTTTTTTTTTTTTTTTTTTTTTTTT gordsh1     TELAPSE        7.98 TCPU        0.55

 DIMENSIONS  P(G)= 6603048 F(G)= 1176077 P(G),F(G) (IRR) 3310876
 MAX G-VECTOR INDEX FOR 1- AND 2-ELECTRON INTEGRALS  55

 TTTTTTTTTTTTTTTTTTTTTTTTTTTTTT INPUT       TELAPSE        9.32 TCPU        1.88

 NEIGHBORS OF THE NON-EQUIVALENT ATOMS

 N = NUMBER OF NEIGHBORS AT DISTANCE R
    ATOM  N     R/ANG      R/AU   NEIGHBORS (ATOM LABELS AND CELL INDICES)
   1 O    1     1.6571     3.1315 121 SI   0 0 0
   1 O    1     1.6627     3.1420 145 SI   0 0 0
   1 O    1     2.4992     4.7229  45 O    0 0 0
   1 O    1     2.5832     4.8815   8 O    0 0 0
   1 O    1     2.7592     5.2141   2 O    0 1 0
   1 O    1     2.8073     5.3051   3 O    1 0 0

   2 O    1     1.6580     3.1332 123 SI   0 0 0
   2 O    1     1.7361     3.2808 145 SI   0-1 0
   2 O    1     2.5370     4.7942  15 O    0 0 0
   2 O    1     2.5510     4.8206  13 O    0-1 0
   2 O    1     2.6471     5.0023  28 O    0 0 0
   2 O    1     2.7592     5.2141   1 O    0-1 0

   3 O    1     1.6879     3.1897 121 SI  -1 0 0
   3 O    1     1.7681     3.3413 124 SI   0 0 0
   3 O    1     2.2811     4.3106 143 SI   0 0 0
   3 O    1     2.3790     4.4956  53 O    0 0 0
   3 O    1     2.4931     4.7113  48 O   -1 0 0
   3 O    1     2.6375     4.9842   8 O   -1 0 0

   4 O    1     1.7642     3.3338 114 SI   0 0-1
   4 O    1     1.9191     3.6265 125 SI   0 0 0
   4 O    1     2.0442     3.8629 124 SI   0 0 0
   4 O    1     2.2701     4.2898  53 O    0 0 0
   4 O    1     2.5331     4.7869  13 O    0 0 0
   4 O    1     2.6773     5.0594   7 O    0 1 0

   5 O    1     1.6291     3.0786 126 SI   0 0 0
   5 O    1     1.6466     3.1116 122 SI   0 0 0
   5 O    1     2.4616     4.6517  29 O    0 0 0
   5 O    1     2.4706     4.6688  11 O    0 0 0
   5 O    1     2.4754     4.6778  19 O    0 0 0
   5 O    1     2.5707     4.8580  14 O    0 0 0

   6 O    1     1.7158     3.2424 102 SI  -1-1-1
   6 O    1     1.7242     3.2583 124 SI   0-1 0
   6 O    1     2.6612     5.0290   3 O    0-1 0
   6 O    1     2.6634     5.0330   8 O   -1-1 0
   6 O    1     2.9286     5.5343   4 O    0-1 0
   6 O    1     2.9419     5.5594 127 SI   0 0 0

   7 O    1     1.6829     3.1803 125 SI   0-1 0
   7 O    1     1.7625     3.3306 134 SI   0 0 0
   7 O    1     2.5114     4.7458  31 O    0-1 0
   7 O    1     2.6773     5.0594   4 O    0-1 0
   7 O    1     2.7876     5.2679 128 SI   0 0 0
   7 O    1     2.8530     5.3914  16 O    0 0 0

   8 O    1     1.6453     3.1091 121 SI   0 0 0
   8 O    1     1.6640     3.1446 102 SI   0 0-1
   8 O    1     2.5832     4.8815   1 O    0 0 0
   8 O    1     2.6375     4.9842   3 O    1 0 0
   8 O    1     2.6634     5.0330   6 O    1 1 0
   8 O    1     2.7131     5.1270  19 O    0 0 0

   9 O    1     1.6604     3.1377 113 SI   0 0 0
   9 O    1     1.6965     3.2059 112 SI   0 0 0
   9 O    1     2.9275     5.5321 120 SI   0 0 0
   9 O    1     3.1961     6.0397 111 SI   0 0 0
   9 O    1     3.2890     6.2153 115 SI   0 0 0
   9 O    1     3.5695     6.7454 110 SI   0 0 0

  10 O    1     1.6741     3.1636 132 SI   0 0 0
  10 O    1     1.6859     3.1859 122 SI   0 0 0
  10 O    1     2.5404     4.8006  33 O    0 0 0
  10 O    1     2.5579     4.8337  29 O    0 0 0
  10 O    1     2.6134     4.9387  11 O    0 0 0
  10 O    1     2.8167     5.3228  24 O    0 0 0

  11 O    1     1.7109     3.2331 120 SI   0 0-1
  11 O    1     1.8644     3.5231 122 SI   0 0 0
  11 O    1     2.2912     4.3297 101 SI   0 0 0
  11 O    1     2.4706     4.6688   5 O    0 0 0
  11 O    1     2.6134     4.9387  10 O    0 0 0
  11 O    1     2.6174     4.9462  16 O    0 0 0

  12 O    1     1.5330     2.8969 127 SI   0 0 0
  12 O    1     2.7320     5.1627  17 O    0 0 0
  12 O    1     2.8808     5.4438  18 O   -1 0 0
  12 O    1     2.9450     5.5652  36 O    0 0 0
  12 O    1     3.1106     5.8782  33 O    0 0 0
  12 O    1     3.1395     5.9327 135 SI   0 0 0

  13 O    1     1.6657     3.1478 145 SI   0 0 0
  13 O    1     1.6744     3.1642 125 SI   0 0 0
  13 O    1     2.5143     4.7514  45 O    0 0 0
  13 O    1     2.5331     4.7869   4 O    0 0 0
  13 O    1     2.5510     4.8206   2 O    0 1 0
  13 O    1     2.5827     4.8805  31 O    0 0 0

  14 O    1     1.6621     3.1409 123 SI   0 0 0
  14 O    1     1.7199     3.2501 126 SI   0 0 0
  14 O    1     2.5542     4.8268  18 O    0 0 0
  14 O    1     2.5707     4.8580   5 O    0 0 0
  14 O    1     2.6136     4.9390  16 O    0 0 0
  14 O    1     2.6486     5.0052  47 O    0 0 0

  15 O    1     1.6261     3.0730 123 SI   0 0 0
  15 O    1     1.6821     3.1787 107 SI   0 0-1
  15 O    1     2.5370     4.7942   2 O    0 0 0
  15 O    1     2.5742     4.8645  16 O    0 0 0
  15 O    1     2.7049     5.1115  14 O    0 0 0
  15 O    1     2.9621     5.5975 128 SI   0 0 0

  16 O    1     1.7615     3.3288 123 SI   0 0 0
  16 O    1     1.8833     3.5589 122 SI   0 0 0
  16 O    1     1.9324     3.6517 128 SI   0 0 0
  16 O    1     2.3365     4.4154  29 O    0 0 0
  16 O    1     2.5742     4.8645  15 O    0 0 0
  16 O    1     2.6136     4.9390  14 O    0 0 0

  17 O    1     1.6076     3.0379 127 SI   0 0 0
  17 O    1     1.6992     3.2111 119 SI   0 0-1
  17 O    1     2.6099     4.9320 128 SI   0 0 0
  17 O    1     2.6534     5.0142  18 O   -1 0 0
  17 O    1     2.7320     5.1627  12 O    0 0 0
  17 O    1     2.9466     5.5682   6 O    0 0 0

  18 O    1     1.6478     3.1140 127 SI   1 0 0
  18 O    1     1.7559     3.3181 108 SI   0 0-1
  18 O    1     2.5542     4.8268  14 O    0 0 0
  18 O    1     2.6534     5.0142  17 O    1 0 0
  18 O    1     2.6947     5.0923 126 SI   0 0 0
  18 O    1     2.8808     5.4438  12 O    1 0 0

  19 O    1     1.6630     3.1426 121 SI   0 0 0
  19 O    1     1.6897     3.1931 126 SI   0 0 0
  19 O    1     2.4647     4.6575  47 O    0 0 0
  19 O    1     2.4754     4.6778   5 O    0 0 0
  19 O    1     2.6438     4.9961   3 O    1 0 0
  19 O    1     2.7131     5.1270   8 O    0 0 0

  20 O    1     1.6265     3.0737 131 SI   0 0 0
  20 O    1     1.6372     3.0938 141 SI   0 0 0
  20 O    1     2.5110     4.7451  52 O    0 0 0
  20 O    1     2.6100     4.9322  47 O    0 0 0
  20 O    1     2.6170     4.9455  23 O    0 0 0
  20 O    1     2.6428     4.9941  41 O    0 0 0

  21 O    1     1.6398     3.0988 140 SI   0 0 0
  21 O    1     1.6497     3.1175 129 SI   0 0 0
  21 O    1     2.5958     4.9053  42 O    0 0 0
  21 O    1     2.6546     5.0165  45 O    0 0 0
  21 O    1     2.6761     5.0570  56 O    0 0 0
  21 O    1     2.6900     5.0833  46 O    0 0 0

  22 O    1     1.6694     3.1547 138 SI   0 0 0
  22 O    1     1.6905     3.1945 130 SI   0 0 0
  22 O    1     2.6758     5.0566  38 O    0 0 0
  22 O    1     2.6925     5.0881  54 O    0 1 0
  22 O    1     2.7221     5.1440  74 SI   0 0 0
  22 O    1     2.7306     5.1602  46 O    0 0 0

  23 O    1     1.6436     3.1059 131 SI   0 0 0
  23 O    1     1.6444     3.1074 129 SI   0 0 0
  23 O    1     2.6034     4.9198  56 O    0 0 0
  23 O    1     2.6170     4.9455  20 O    0 0 0
  23 O    1     2.6348     4.9791  47 O    0 0 0
  23 O    1     2.7304     5.1597  42 O    0 0 0

  24 O    1     1.6881     3.1901 143 SI   0 0 0
  24 O    1     1.7092     3.2299 132 SI   0 0 0
  24 O    1     2.6005     4.9142  26 O    0 0 0
  24 O    1     2.6767     5.0582  49 O    0 0 0
  24 O    1     2.6967     5.0961  53 O    0 0 0
  24 O    1     2.8167     5.3228  10 O    0 0 0

  25 O    1     1.6082     3.0391 136 SI   0 0 0
  25 O    1     1.6480     3.1142 133 SI   0 0 0
  25 O    1     2.5842     4.8833  44 O    0-1 0
  25 O    1     2.5939     4.9018  52 O    0 0 0
  25 O    1     2.7323     5.1633  55 O    0 0 0
  25 O    1     2.7992     5.2897  28 O    0 0 0

  26 O    1     1.6358     3.0912 137 SI   0 0 0
  26 O    1     1.6562     3.1297 132 SI   0 0 0
  26 O    1     2.5845     4.8840  46 O    0 0 0
  26 O    1     2.6005     4.9142  24 O    0 0 0
  26 O    1     2.6941     5.0911  33 O    0 0 0
  26 O    1     2.7408     5.1794  38 O    0 0 0

  27 O    1     1.6128     3.0478 147 SI   0 0 0
  27 O    1     1.6803     3.1754 139 SI   0 0 0
  27 O    1     2.4946     4.7142  56 O    0 0 0
  27 O    1     2.5327     4.7861  43 O    0 1 0
  27 O    1     2.5842     4.8835  28 O    0 1 0
  27 O    1     2.6295     4.9691  32 O    0 1 0

  28 O    1     1.6594     3.1358 133 SI   0 0 0
  28 O    1     1.6662     3.1486 147 SI   0-1 0
  28 O    1     2.4298     4.5917  32 O    0 0 0
  28 O    1     2.5681     4.8530  45 O    0-1 0
  28 O    1     2.5842     4.8835  27 O    0-1 0
  28 O    1     2.6111     4.9342 145 SI   0-1 0

  29 O    1     1.6006     3.0247 141 SI   0 0 0
  29 O    1     1.7646     3.3346 122 SI   0 0 0
  29 O    1     2.3365     4.4154  16 O    0 0 0
  29 O    1     2.4616     4.6517   5 O    0 0 0
  29 O    1     2.5278     4.7769  41 O    0 0 0
  29 O    1     2.5579     4.8337  10 O    0 0 0

  30 O    1     1.6358     3.0911 144 SI   0 0 0
  30 O    1     1.6860     3.1860  82 SI   0 0 0
  30 O    1     2.6416     4.9919  41 O    0 0 0
  30 O    1     2.7476     5.1922  38 O    0 0 0
  30 O    1     2.7652     5.2255  42 O    0 0 0
  30 O    1     2.7982     5.2879  54 O    0 0 0

  31 O    1     1.6438     3.1062 148 SI   0 0 0
  31 O    1     1.7528     3.3123 125 SI   0 0 0
  31 O    1     2.5114     4.7458   7 O    0 1 0
  31 O    1     2.5262     4.7739  49 O    0 0 0
  31 O    1     2.5827     4.8805  13 O    0 0 0
  31 O    1     2.6230     4.9567  53 O    0 0 0

  32 O    1     1.6081     3.0389 135 SI   1 0 0
  32 O    1     1.6274     3.0753 147 SI   0-1 0
  32 O    1     2.4298     4.5917  28 O    0 0 0
  32 O    1     2.4875     4.7007  50 O    1 0 0
  32 O    1     2.6295     4.9691  27 O    0-1 0
  32 O    1     2.6326     4.9749  36 O    1 0 0

  33 O    1     1.6617     3.1402 132 SI   0 0 0
  33 O    1     1.7501     3.3072 134 SI   0 0 0
  33 O    1     2.5404     4.8006  10 O    0 0 0
  33 O    1     2.6941     5.0911  26 O    0 0 0
  33 O    1     2.9037     5.4873   7 O    0 0 0
  33 O    1     2.9107     5.5003  24 O    0 0 0

  34 O    1     1.6003     3.0241 146 SI   0 0 0
  34 O    1     1.7253     3.2603  73 SI   0 0 0
  34 O    1     2.5885     4.8916  55 O   -1 0 0
  34 O    1     2.6306     4.9712  37 O    0 0 0
  34 O    1     2.7979     5.2872 142 SI   0 0 0
  34 O    1     2.8016     5.2942  35 O    0 0 0

  35 O    1     1.6559     3.1292 146 SI   0 0 0
  35 O    1     1.6568     3.1310  81 SI   0 0 0
  35 O    1     2.5675     4.8518  37 O    0 0 0
  35 O    1     2.7043     5.1105  55 O   -1 0 0
  35 O    1     2.8016     5.2942  34 O    0 0 0
  35 O    1     3.0279     5.7219  43 O   -1 0 0

  36 O    1     1.6391     3.0975 131 SI  -1 0 0
  36 O    1     1.6489     3.1161 135 SI   0 0 0
  36 O    1     2.4713     4.6701  37 O    0 0 0
  36 O    1     2.6092     4.9308  47 O   -1 0 0
  36 O    1     2.6326     4.9749  32 O   -1 0 0
  36 O    1     2.6861     5.0760  20 O   -1 0 0

  37 O    1     1.6022     3.0278 146 SI   0 0 0
  37 O    1     1.6384     3.0961 135 SI   0 0 0
  37 O    1     2.4713     4.6701  36 O    0 0 0
  37 O    1     2.5675     4.8518  35 O    0 0 0
  37 O    1     2.6005     4.9143  50 O    0 0 0
  37 O    1     2.6306     4.9712  34 O    0 0 0

  38 O    1     1.6597     3.1364 144 SI   0 0 0
  38 O    1     1.6924     3.1981 137 SI   0 0 0
  38 O    1     2.3591     4.4581 138 SI   0 0 0
  38 O    1     2.5536     4.8255  41 O    0 0 0
  38 O    1     2.5818     4.8788  46 O    0 0 0
  38 O    1     2.6452     4.9986  40 O    0 0 0

  39 O    1     1.6739     3.1632 139 SI  -1 0 0
  39 O    1     1.6923     3.1980 142 SI   0 0 0
  39 O    1     2.5469     4.8130  56 O   -1 0 0
  39 O    1     2.5724     4.8611  43 O   -1 1 0
  39 O    1     2.7011     5.1043  27 O   -1 0 0
  39 O    1     2.7932     5.2784  40 O    0 0 0

  40 O    1     1.6435     3.1057 137 SI   0 0 0
  40 O    1     1.7389     3.2860 142 SI   0 0 0
  40 O    1     2.6452     4.9986  38 O    0 0 0
  40 O    1     2.7620     5.2194  26 O    0 0 0
  40 O    1     2.7932     5.2784  39 O    0 0 0
  40 O    1     2.8407     5.3681  46 O    0 0 0

  41 O    1     1.6088     3.0401 144 SI   0 0 0
  41 O    1     1.6132     3.0486 141 SI   0 0 0
  41 O    1     2.5278     4.7769  29 O    0 0 0
  41 O    1     2.5536     4.8255  38 O    0 0 0
  41 O    1     2.6042     4.9212  42 O    0 0 0
  41 O    1     2.6416     4.9919  30 O    0 0 0

  42 O    1     1.6498     3.1177 144 SI   0 0 0
  42 O    1     1.6786     3.1721 129 SI   0 0 0
  42 O    1     2.5958     4.9053  21 O    0 0 0
  42 O    1     2.6042     4.9212  41 O    0 0 0
  42 O    1     2.7026     5.1073  56 O    0 0 0
  42 O    1     2.7189     5.1380  38 O    0 0 0

  43 O    1     1.6364     3.0924 136 SI   0 0 0
  43 O    1     1.8715     3.5366 139 SI   0-1 0
  43 O    1     2.4617     4.6520  81 SI   1 0 0
  43 O    1     2.5327     4.7861  27 O    0-1 0
  43 O    1     2.5724     4.8611  39 O    1-1 0
  43 O    1     2.7020     5.1060  55 O    0 0 0

  44 O    1     1.6226     3.0663 133 SI   0 1 0
  44 O    1     1.6385     3.0962 140 SI   0 0 0
  44 O    1     2.5803     4.8762  46 O    0 0 0
  44 O    1     2.5842     4.8833  25 O    0 1 0
  44 O    1     2.6136     4.9390  45 O    0 0 0
  44 O    1     2.6223     4.9554  28 O    0 1 0

  45 O    1     1.6203     3.0619 140 SI   0 0 0
  45 O    1     1.6649     3.1462 145 SI   0 0 0
  45 O    1     2.4992     4.7229   1 O    0 0 0
  45 O    1     2.5143     4.7514  13 O    0 0 0
  45 O    1     2.5681     4.8530  28 O    0 1 0
  45 O    1     2.6136     4.9390  44 O    0 0 0

  46 O    1     1.6302     3.0807 140 SI   0 0 0
  46 O    1     1.6403     3.0997 137 SI   0 0 0
  46 O    1     2.5803     4.8762  44 O    0 0 0
  46 O    1     2.5818     4.8788  38 O    0 0 0
  46 O    1     2.5845     4.8840  26 O    0 0 0
  46 O    1     2.6900     5.0833  21 O    0 0 0

  47 O    1     1.6170     3.0556 131 SI   0 0 0
  47 O    1     1.6214     3.0639 126 SI   0 0 0
  47 O    1     2.4647     4.6575  19 O    0 0 0
  47 O    1     2.6092     4.9308  36 O    1 0 0
  47 O    1     2.6100     4.9322  20 O    0 0 0
  47 O    1     2.6348     4.9791  23 O    0 0 0

  48 O    1     1.6414     3.1019 147 SI   0 0 0
  48 O    1     1.7000     3.2124 143 SI   1 0 0
  48 O    1     2.4566     4.6423  49 O    1 0 0
  48 O    1     2.4931     4.7113   3 O    1 0 0
  48 O    1     2.6917     5.0866  27 O    0 0 0
  48 O    1     2.7833     5.2597  32 O    0 1 0

  49 O    1     1.6446     3.1078 148 SI   0 0 0
  49 O    1     1.6615     3.1397 143 SI   0 0 0
  49 O    1     2.4566     4.6423  48 O   -1 0 0
  49 O    1     2.5262     4.7739  31 O    0 0 0
  49 O    1     2.6250     4.9605  51 O    0 0 0
  49 O    1     2.6521     5.0117  53 O    0 0 0

  50 O    1     1.6593     3.1357 135 SI   0 0 0
  50 O    1     1.6945     3.2021 148 SI   0-1 0
  50 O    1     2.4875     4.7007  32 O   -1 0 0
  50 O    1     2.5878     4.8902 134 SI   0 0 0
  50 O    1     2.6005     4.9143  37 O    0 0 0
  50 O    1     2.6250     4.9605  31 O    0-1 0

  51 O    1     1.6691     3.1542 148 SI   0 0 0
  51 O    1     1.6771     3.1694 130 SI   0 0 0
  51 O    1     2.5964     4.9066  54 O    0 1 0
  51 O    1     2.6250     4.9605  49 O    0 0 0
  51 O    1     2.6724     5.0500  50 O    0 1 0
  51 O    1     2.8303     5.3486  46 O    0 0 0

  52 O    1     1.6195     3.0604 133 SI   0 0 0
  52 O    1     1.6413     3.1017 141 SI   0 0 0
  52 O    1     2.5110     4.7451  20 O    0 0 0
  52 O    1     2.5939     4.9018  25 O    0 0 0
  52 O    1     2.6597     5.0261  44 O    0-1 0
  52 O    1     2.6868     5.0772  29 O    0 0 0

  53 O    1     1.7500     3.3070 143 SI   0 0 0
  53 O    1     1.8005     3.4024 124 SI   0 0 0
  53 O    1     1.9227     3.6334 125 SI   0 0 0
  53 O    1     2.2701     4.2898   4 O    0 0 0
  53 O    1     2.3790     4.4956   3 O    0 0 0
  53 O    1     2.6230     4.9567  31 O    0 0 0

  54 O    1     1.7436     3.2949 130 SI   0-1 0
  54 O    1     1.9007     3.5918  82 SI   0 0 0
  54 O    1     1.9048     3.5995  65 SI   0 0 0
  54 O    1     2.5964     4.9066  51 O    0-1 0
[...]
  14.0020799  14.0626481  14.0660151  13.6919984  13.7019535  13.5886966
  14.0367938  13.9669671  14.0638543  14.0310205  13.7111958  13.7088030
  12.6339747  12.6474595  12.6865487  12.8813552  12.5035548  12.7745606
  12.8168022  13.4721055  12.7257438  12.8776325  12.7798550  12.6951550
  12.9022547  13.1519905  12.6539468  13.1477145  12.6048485  13.4474392
  12.9361656  12.6775565  12.8005960  13.2400116  12.5810444  12.8634707
  12.5128007  13.0350340  12.7184836  12.6021291
 SUMMED SPIN DENSITY           0.00000000
 TOTAL ATOMIC SPINS  :
   0.0000000   0.0000000   0.0000000   0.0000000   0.0000000   0.0000000
   0.0000000   0.0000000   0.0000000   0.0000000   0.0000000   0.0000000
   0.0000000   0.0000000   0.0000000   0.0000000   0.0000000   0.0000000
   0.0000000   0.0000000   0.0000000   0.0000000   0.0000000   0.0000000
   0.0000000   0.0000000   0.0000000   0.0000000   0.0000000   0.0000000
   0.0000000   0.0000000   0.0000000   0.0000000   0.0000000   0.0000000
   0.0000000   0.0000000   0.0000000   0.0000000   0.0000000   0.0000000
   0.0000000   0.0000000   0.0000000   0.0000000   0.0000000   0.0000000
   0.0000000   0.0000000   0.0000000   0.0000000   0.0000000   0.0000000
   0.0000000   0.0000000   0.0000000   0.0000000   0.0000000   0.0000000
   0.0000000   0.0000000   0.0000000   0.0000000   0.0000000   0.0000000
   0.0000000   0.0000000   0.0000000   0.0000000   0.0000000   0.0000000
   0.0000000   0.0000000   0.0000000   0.0000000   0.0000000   0.0000000
   0.0000000   0.0000000   0.0000000   0.0000000   0.0000000   0.0000000
   0.0000000   0.0000000   0.0000000   0.0000000   0.0000000   0.0000000
   0.0000000   0.0000000   0.0000000   0.0000000   0.0000000   0.0000000
   0.0000000   0.0000000   0.0000000   0.0000000   0.0000000   0.0000000
   0.0000000   0.0000000   0.0000000   0.0000000   0.0000000   0.0000000
   0.0000000   0.0000000   0.0000000   0.0000000   0.0000000   0.0000000
   0.0000000   0.0000000   0.0000000   0.0000000   0.0000000   0.0000000
   0.0000000   0.0000000   0.0000000   0.0000000   0.0000000   0.0000000
   0.0000000   0.0000000   0.0000000   0.0000000   0.0000000   0.0000000
   0.0000000   0.0000000   0.0000000   0.0000000   0.0000000   0.0000000
   0.0000000   0.0000000   0.0000000   0.0000000   0.0000000   0.0000000
   0.0000000   0.0000000   0.0000000   0.0000000
 TTTTTTTTTTTTTTTTTTTTTTTTTTTTTT MOQGAD      TELAPSE    13927.91 TCPU    13543.04
 WARNING **** GENBUD **** COUL. BIPO BUFFER TOO SMALL - TO AVOID I/O SET BIPOSIZE =     1999725
 TTTTTTTTTTTTTTTTTTTTTTTTTTTTTT SHELLX      TELAPSE    14005.48 TCPU    13619.55
 TTTTTTTTTTTTTTTTTTTTTTTTTTTTTT MONMO3      TELAPSE    14016.99 TCPU    13631.04
 NUMERICALLY INTEGRATED DENSITY    868.0001328671    868.0001328671
 TTTTTTTTTTTTTTTTTTTTTTTTTTTTTT NUMDFT      TELAPSE    14023.04 TCPU    13637.08
 CYC  67 ETOT(AU) -3.084465626106E+04 DETOT -6.15E-06 tst  6.03E-08 PX  2.61E-03
 MODIFIED BROYDEN: MIX%=  90 W0=  1.000000000000E-04 W=  3.019162163552E+01
 TTTTTTTTTTTTTTTTTTTTTTTTTTTTTT FDIK        TELAPSE    14106.32 TCPU    13717.08

    ALPHA      ELECTRONS
 INSULATING STATE
 TOP OF VALENCE BANDS -    BAND    868; K    4; EIG -1.0323185E-01 AU
 TOP OF VALENCE BANDS -    BAND    868; K    1; EIG -1.0612282E-01 AU
 BOTTOM OF VIRTUAL BANDS - BAND    869; K    6; EIG -1.0301252E-01 AU
 BOTTOM OF VIRTUAL BANDS - BAND    869; K    1; EIG -1.0095521E-01 AU

    BETA       ELECTRONS
 INSULATING STATE
 TOP OF VALENCE BANDS -    BAND    868; K    4; EIG -1.0323185E-01 AU
 TOP OF VALENCE BANDS -    BAND    868; K    1; EIG -1.0612282E-01 AU
 BOTTOM OF VIRTUAL BANDS - BAND    869; K    6; EIG -1.0301252E-01 AU
 BOTTOM OF VIRTUAL BANDS - BAND    869; K    1; EIG -1.0095521E-01 AU
 TTTTTTTTTTTTTTTTTTTTTTTTTTTTTT PDIG        TELAPSE    14109.37 TCPU    13720.13
 CHARGE NORMALIZATION FACTOR   1.00000000
 TOTAL ATOMIC CHARGES:
   8.6631979   8.6930323   8.8314269   8.8324557   8.5241613   8.6428535
   8.6844423   8.6356189   8.5539726   8.5897374   8.7408630   8.5936083
   8.6326571   8.6726182   8.6011418   8.8315101   8.6311842   8.7244394
   8.6351197   8.6846978   8.7157602   8.7031839   8.6174154   8.6491215
   8.5141264   8.6512067   8.7225182   8.6807123   8.8014965   8.6053851
   8.7689619   8.6371341   8.6933009   8.5065964   8.5348904   8.5824424
   8.5465961   8.7478536   8.6073452   8.6711594   8.5900406   8.5803317
   8.6538685   8.5487705   8.6686389   8.6994195   8.5434299   8.6376757
   8.6817814   8.7567541   8.7351517   8.5460247   8.9084867   8.8115100
   8.6031062   8.6709348  13.9774601  13.9701350  14.1147145  13.9915508
  13.9746118  14.0396918  13.9947218  13.9933554  13.7046912  13.7469370
  14.0011422  14.1019528  14.0650191  14.0061358  13.9870331  13.9674226
  13.8093270  14.0232814  14.0805484  14.1515244  14.0107369  14.0199382
  13.9942519  13.9917715  13.3334307  13.2806953  13.8972318  14.0908949
  14.0832292  14.0016249  13.9885539  13.9675385  13.9828568  14.0010103
  14.0084985  13.9847546  14.0113472  13.9892069  14.0034291  13.9953936
  13.9830510  13.9819038  14.0851552  14.0564709  13.6135917  13.3772398
  14.0273127  14.0288198  14.1779684  14.0222977  13.6749599  13.6367601
  14.0019210  14.0627403  14.0661006  13.6918759  13.7019177  13.5885320
  14.0368856  13.9669627  14.0640188  14.0308346  13.7098223  13.7082653
  12.6340460  12.6473543  12.6865317  12.8813031  12.5034141  12.7744995
  12.8166598  13.4720465  12.7257147  12.8776161  12.7799025  12.6950967
  12.9022507  13.1519909  12.6541273  13.1523719  12.6047929  13.4471952
  12.9361590  12.6775301  12.8005834  13.2404262  12.5809909  12.8634716
  12.5127431  13.0355741  12.7184924  12.6021866
 SUMMED SPIN DENSITY           0.00000000
 TOTAL ATOMIC SPINS  :
   0.0000000   0.0000000   0.0000000   0.0000000   0.0000000   0.0000000
   0.0000000   0.0000000   0.0000000   0.0000000   0.0000000   0.0000000
   0.0000000   0.0000000   0.0000000   0.0000000   0.0000000   0.0000000
   0.0000000   0.0000000   0.0000000   0.0000000   0.0000000   0.0000000
   0.0000000   0.0000000   0.0000000   0.0000000   0.0000000   0.0000000
   0.0000000   0.0000000   0.0000000   0.0000000   0.0000000   0.0000000
   0.0000000   0.0000000   0.0000000   0.0000000   0.0000000   0.0000000
   0.0000000   0.0000000   0.0000000   0.0000000   0.0000000   0.0000000
   0.0000000   0.0000000   0.0000000   0.0000000   0.0000000   0.0000000
   0.0000000   0.0000000   0.0000000   0.0000000   0.0000000   0.0000000
   0.0000000   0.0000000   0.0000000   0.0000000   0.0000000   0.0000000
   0.0000000   0.0000000   0.0000000   0.0000000   0.0000000   0.0000000
   0.0000000   0.0000000   0.0000000   0.0000000   0.0000000   0.0000000
   0.0000000   0.0000000   0.0000000   0.0000000   0.0000000   0.0000000
   0.0000000   0.0000000   0.0000000   0.0000000   0.0000000   0.0000000
   0.0000000   0.0000000   0.0000000   0.0000000   0.0000000   0.0000000
   0.0000000   0.0000000   0.0000000   0.0000000   0.0000000   0.0000000
   0.0000000   0.0000000   0.0000000   0.0000000   0.0000000   0.0000000
   0.0000000   0.0000000   0.0000000   0.0000000   0.0000000   0.0000000
   0.0000000   0.0000000   0.0000000   0.0000000   0.0000000   0.0000000
   0.0000000   0.0000000   0.0000000   0.0000000   0.0000000   0.0000000
   0.0000000   0.0000000   0.0000000   0.0000000   0.0000000   0.0000000
   0.0000000   0.0000000   0.0000000   0.0000000   0.0000000   0.0000000
   0.0000000   0.0000000   0.0000000   0.0000000   0.0000000   0.0000000
   0.0000000   0.0000000   0.0000000   0.0000000
 TTTTTTTTTTTTTTTTTTTTTTTTTTTTTT MOQGAD      TELAPSE    14109.49 TCPU    13720.25
 WARNING **** GENBUD **** COUL. BIPO BUFFER TOO SMALL - TO AVOID I/O SET BIPOSIZE =     1999725
 TTTTTTTTTTTTTTTTTTTTTTTTTTTTTT SHELLX      TELAPSE    14185.94 TCPU    13796.08
 TTTTTTTTTTTTTTTTTTTTTTTTTTTTTT MONMO3      TELAPSE    14203.02 TCPU    13813.13
 NUMERICALLY INTEGRATED DENSITY    868.0001328717    868.0001328717
 TTTTTTTTTTTTTTTTTTTTTTTTTTTTTT NUMDFT      TELAPSE    14209.38 TCPU    13819.48
 CYC  68 ETOT(AU) -3.084465626933E+04 DETOT -8.27E-06 tst  5.12E-08 PX  7.67E-03
 MODIFIED BROYDEN: MIX%=  90 W0=  1.000000000000E-04 W=  2.276106392213E+02
 TTTTTTTTTTTTTTTTTTTTTTTTTTTTTT FDIK        TELAPSE    14301.21 TCPU    13908.13

    ALPHA      ELECTRONS
 INSULATING STATE
 TOP OF VALENCE BANDS -    BAND    868; K    4; EIG -1.0323567E-01 AU
 TOP OF VALENCE BANDS -    BAND    868; K    1; EIG -1.0612722E-01 AU
 BOTTOM OF VIRTUAL BANDS - BAND    869; K    6; EIG -1.0301511E-01 AU
 BOTTOM OF VIRTUAL BANDS - BAND    869; K    1; EIG -1.0095598E-01 AU

    BETA       ELECTRONS
 INSULATING STATE
 TOP OF VALENCE BANDS -    BAND    868; K    4; EIG -1.0323567E-01 AU
 TOP OF VALENCE BANDS -    BAND    868; K    1; EIG -1.0612722E-01 AU
 BOTTOM OF VIRTUAL BANDS - BAND    869; K    6; EIG -1.0301511E-01 AU
 BOTTOM OF VIRTUAL BANDS - BAND    869; K    1; EIG -1.0095598E-01 AU
 TTTTTTTTTTTTTTTTTTTTTTTTTTTTTT PDIG        TELAPSE    14304.24 TCPU    13911.15
 CHARGE NORMALIZATION FACTOR   1.00000000
 TOTAL ATOMIC CHARGES:
   8.6631975   8.6930425   8.8314321   8.8324885   8.5241727   8.6428671
   8.6844561   8.6356208   8.5539854   8.5897463   8.7408548   8.5935737
   8.6326584   8.6726301   8.6011506   8.8315173   8.6312067   8.7244642
   8.6351171   8.6846981   8.7157622   8.7031851   8.6174153   8.6491273
   8.5141195   8.6512150   8.7225187   8.6807103   8.8015006   8.6053863
   8.7689663   8.6371212   8.6933028   8.5066236   8.5348608   8.5824367
   8.5465893   8.7478602   8.6073527   8.6711596   8.5900404   8.5803342
   8.6538152   8.5487800   8.6686418   8.6994224   8.5434324   8.6376708
   8.6817881   8.7567526   8.7351573   8.5460305   8.9084912   8.8114881
   8.6031133   8.6709473  13.9775219  13.9701938  14.1147751  13.9914490
  13.9746187  14.0395949  13.9946240  13.9932656  13.7048308  13.7469071
  14.0011601  14.1019530  14.0651029  14.0061281  13.9870762  13.9673389
  13.8092593  14.0233154  14.0805879  14.1515479  14.0106877  14.0199207
  13.9942107  13.9918374  13.3334010  13.2807115  13.8970147  14.0911247
  14.0831701  14.0017874  13.9886195  13.9675753  13.9827372  14.0008437
  14.0084819  13.9846809  14.0112605  13.9892163  14.0034517  13.9954843
  13.9829370  13.9818144  14.0851073  14.0563694  13.6136911  13.3772824
  14.0271778  14.0287353  14.1779321  14.0222448  13.6749336  13.6368228
  14.0019356  14.0627303  14.0660671  13.6919196  13.7019734  13.5886013
  14.0369249  13.9669987  14.0640548  14.0309505  13.7100155  13.7083047
  12.6340600  12.6473264  12.6865346  12.8813247  12.5033678  12.7744639
  12.8166875  13.4721947  12.7256980  12.8776504  12.7799045  12.6950786
  12.9022390  13.1520151  12.6541221  13.1521825  12.6047795  13.4472628
  12.9361607  12.6775279  12.8005888  13.2404689  12.5809672  12.8634688
  12.5127122  13.0355534  12.7184736  12.6021953
 SUMMED SPIN DENSITY           0.00000000
 TOTAL ATOMIC SPINS  :
   0.0000000   0.0000000   0.0000000   0.0000000   0.0000000   0.0000000
   0.0000000   0.0000000   0.0000000   0.0000000   0.0000000   0.0000000
   0.0000000   0.0000000   0.0000000   0.0000000   0.0000000   0.0000000
   0.0000000   0.0000000   0.0000000   0.0000000   0.0000000   0.0000000
   0.0000000   0.0000000   0.0000000   0.0000000   0.0000000   0.0000000
   0.0000000   0.0000000   0.0000000   0.0000000   0.0000000   0.0000000
   0.0000000   0.0000000   0.0000000   0.0000000   0.0000000   0.0000000
   0.0000000   0.0000000   0.0000000   0.0000000   0.0000000   0.0000000
   0.0000000   0.0000000   0.0000000   0.0000000   0.0000000   0.0000000
   0.0000000   0.0000000   0.0000000   0.0000000   0.0000000   0.0000000
   0.0000000   0.0000000   0.0000000   0.0000000   0.0000000   0.0000000
   0.0000000   0.0000000   0.0000000   0.0000000   0.0000000   0.0000000
   0.0000000   0.0000000   0.0000000   0.0000000   0.0000000   0.0000000
   0.0000000   0.0000000   0.0000000   0.0000000   0.0000000   0.0000000
   0.0000000   0.0000000   0.0000000   0.0000000   0.0000000   0.0000000
   0.0000000   0.0000000   0.0000000   0.0000000   0.0000000   0.0000000
   0.0000000   0.0000000   0.0000000   0.0000000   0.0000000   0.0000000
   0.0000000   0.0000000   0.0000000   0.0000000   0.0000000   0.0000000
   0.0000000   0.0000000   0.0000000   0.0000000   0.0000000   0.0000000
   0.0000000   0.0000000   0.0000000   0.0000000   0.0000000   0.0000000
   0.0000000   0.0000000   0.0000000   0.0000000   0.0000000   0.0000000
   0.0000000   0.0000000   0.0000000   0.0000000   0.0000000   0.0000000
   0.0000000   0.0000000   0.0000000   0.0000000   0.0000000   0.0000000
   0.0000000   0.0000000   0.0000000   0.0000000   0.0000000   0.0000000
   0.0000000   0.0000000   0.0000000   0.0000000
 TTTTTTTTTTTTTTTTTTTTTTTTTTTTTT MOQGAD      TELAPSE    14304.34 TCPU    13911.25
 WARNING **** GENBUD **** COUL. BIPO BUFFER TOO SMALL - TO AVOID I/O SET BIPOSIZE =     1999725
 TTTTTTTTTTTTTTTTTTTTTTTTTTTTTT SHELLX      TELAPSE    14381.22 TCPU    13987.07
 TTTTTTTTTTTTTTTTTTTTTTTTTTTTTT MONMO3      TELAPSE    14392.21 TCPU    13998.03
 NUMERICALLY INTEGRATED DENSITY    868.0001328683    868.0001328683
 TTTTTTTTTTTTTTTTTTTTTTTTTTTTTT NUMDFT      TELAPSE    14398.19 TCPU    14004.02
 CYC  69 ETOT(AU) -3.084465626934E+04 DETOT -1.74E-08 tst  3.90E-10 PX  3.74E-04
 MODIFIED BROYDEN: MIX%=  90 W0=  1.000000000000E-04 W=  2.441270111223E+02
 TTTTTTTTTTTTTTTTTTTTTTTTTTTTTT FDIK        TELAPSE    14483.94 TCPU    14086.76

    ALPHA      ELECTRONS
 INSULATING STATE
 TOP OF VALENCE BANDS -    BAND    868; K    4; EIG -1.0323314E-01 AU
 TOP OF VALENCE BANDS -    BAND    868; K    1; EIG -1.0612347E-01 AU
 BOTTOM OF VIRTUAL BANDS - BAND    869; K    6; EIG -1.0301397E-01 AU
 BOTTOM OF VIRTUAL BANDS - BAND    869; K    1; EIG -1.0095789E-01 AU

    BETA       ELECTRONS
 INSULATING STATE
 TOP OF VALENCE BANDS -    BAND    868; K    4; EIG -1.0323314E-01 AU
 TOP OF VALENCE BANDS -    BAND    868; K    1; EIG -1.0612347E-01 AU
 BOTTOM OF VIRTUAL BANDS - BAND    869; K    6; EIG -1.0301397E-01 AU
 BOTTOM OF VIRTUAL BANDS - BAND    869; K    1; EIG -1.0095789E-01 AU
 TTTTTTTTTTTTTTTTTTTTTTTTTTTTTT PDIG        TELAPSE    14487.37 TCPU    14090.19
 CHARGE NORMALIZATION FACTOR   1.00000000
 TOTAL ATOMIC CHARGES:
   8.6632050   8.6930531   8.8314320   8.8324914   8.5241885   8.6428632
   8.6844523   8.6356510   8.5539706   8.5897476   8.7408358   8.5935502
   8.6326532   8.6726390   8.6011553   8.8315064   8.6311753   8.7244655
   8.6351207   8.6847074   8.7157562   8.7031783   8.6174179   8.6491315
   8.5141535   8.6512209   8.7225190   8.6806981   8.8014956   8.6053775
   8.7689673   8.6371643   8.6932962   8.5066600   8.5348237   8.5824215
   8.5466192   8.7478550   8.6073702   8.6711775   8.5900381   8.5803496
   8.6538391   8.5487770   8.6686405   8.6994178   8.5434314   8.6376595
   8.6818018   8.7567493   8.7351639   8.5460219   8.9084834   8.8114680
   8.6031496   8.6709641  13.9774009  13.9702715  14.1147783  13.9915457
  13.9746031  14.0396590  13.9946368  13.9932543  13.7047812  13.7469628
  14.0011728  14.1019496  14.0651204  14.0061466  13.9871362  13.9674221
  13.8092887  14.0233188  14.0805577  14.1515475  14.0106999  14.0199094
  13.9942044  13.9918044  13.3333920  13.2807189  13.8969617  14.0910038
  14.0831619  14.0016983  13.9885771  13.9675654  13.9827298  14.0008529
  14.0084743  13.9847517  14.0112695  13.9891718  14.0034457  13.9954592
  13.9829551  13.9818588  14.0851408  14.0563993  13.6137294  13.3772679
  14.0272342  14.0287077  14.1778802  14.0222529  13.6749410  13.6368254
  14.0018964  14.0627076  14.0660563  13.6919237  13.7019756  13.5885944
  14.0368970  13.9669532  14.0640357  14.0308610  13.7097879  13.7082742
  12.6340534  12.6473087  12.6865311  12.8813325  12.5033565  12.7744467
  12.8167187  13.4721272  12.7256914  12.8776530  12.7799093  12.6950777
  12.9022470  13.1520266  12.6541239  13.1524965  12.6047759  13.4472648
  12.9361720  12.6775307  12.8006010  13.2405089  12.5809630  12.8634661
  12.5126991  13.0355660  12.7184680  12.6022008
 SUMMED SPIN DENSITY           0.00000000
 TOTAL ATOMIC SPINS  :
   0.0000000   0.0000000   0.0000000   0.0000000   0.0000000   0.0000000
   0.0000000   0.0000000   0.0000000   0.0000000   0.0000000   0.0000000
   0.0000000   0.0000000   0.0000000   0.0000000   0.0000000   0.0000000
   0.0000000   0.0000000   0.0000000   0.0000000   0.0000000   0.0000000
   0.0000000   0.0000000   0.0000000   0.0000000   0.0000000   0.0000000
   0.0000000   0.0000000   0.0000000   0.0000000   0.0000000   0.0000000
   0.0000000   0.0000000   0.0000000   0.0000000   0.0000000   0.0000000
   0.0000000   0.0000000   0.0000000   0.0000000   0.0000000   0.0000000
   0.0000000   0.0000000   0.0000000   0.0000000   0.0000000   0.0000000
   0.0000000   0.0000000   0.0000000   0.0000000   0.0000000   0.0000000
   0.0000000   0.0000000   0.0000000   0.0000000   0.0000000   0.0000000
   0.0000000   0.0000000   0.0000000   0.0000000   0.0000000   0.0000000
   0.0000000   0.0000000   0.0000000   0.0000000   0.0000000   0.0000000
   0.0000000   0.0000000   0.0000000   0.0000000   0.0000000   0.0000000
   0.0000000   0.0000000   0.0000000   0.0000000   0.0000000   0.0000000
   0.0000000   0.0000000   0.0000000   0.0000000   0.0000000   0.0000000
   0.0000000   0.0000000   0.0000000   0.0000000   0.0000000   0.0000000
   0.0000000   0.0000000   0.0000000   0.0000000   0.0000000   0.0000000
   0.0000000   0.0000000   0.0000000   0.0000000   0.0000000   0.0000000
   0.0000000   0.0000000   0.0000000   0.0000000   0.0000000   0.0000000
   0.0000000   0.0000000   0.0000000   0.0000000   0.0000000   0.0000000
   0.0000000   0.0000000   0.0000000   0.0000000   0.0000000   0.0000000
   0.0000000   0.0000000   0.0000000   0.0000000   0.0000000   0.0000000
   0.0000000   0.0000000   0.0000000   0.0000000   0.0000000   0.0000000
   0.0000000   0.0000000   0.0000000   0.0000000
 TTTTTTTTTTTTTTTTTTTTTTTTTTTTTT MOQGAD      TELAPSE    14487.47 TCPU    14090.29
 WARNING **** GENBUD **** COUL. BIPO BUFFER TOO SMALL - TO AVOID I/O SET BIPOSIZE =     1999725
 TTTTTTTTTTTTTTTTTTTTTTTTTTTTTT SHELLX      TELAPSE    14565.13 TCPU    14167.82
 +++ ENERGIES IN A.U. +++
 ::: EXT EL-POLE                                  -4.4234152107266E+04
 ::: EXT EL-SPHEROPOLE                             3.1990879121588E+02
 ::: BIELET ZONE E-E                               5.3468777951617E+04
 ::: TOTAL E-E                                     9.5545346355673E+03
 ::: TOTAL E-N + N-E                              -6.3598357225727E+04
 ::: TOTAL N-N                                    -5.2498302736304E+03
 ::: KINETIC ENERGY                                3.0736937405953E+04
 ::: PSEUDO TOTAL   ENERGY                        -2.8556715457837E+04
 ::: VIRIAL COEFFICIENT                            1.0367699044133E+00
 TTTTTTTTTTTTTTTTTTTTTTTTTTTTTT MONMO3      TELAPSE    14574.83 TCPU    14177.49
 NUMERICALLY INTEGRATED DENSITY    868.0001328696    868.0001328696
 TTTTTTTTTTTTTTTTTTTTTTTTTTTTTT NUMDFT      TELAPSE    14580.80 TCPU    14183.44
 CYC  70 ETOT(AU) -3.084465626952E+04 DETOT -1.77E-07 tst  1.13E-09 PX  3.74E-04

 == SCF ENDED - CONVERGENCE ON ENERGY      E(AU) -3.0844656269520E+04 CYCLES  70


 ENERGY EXPRESSION=HARTREE+FOCK EXCH*0.05000+(BECKE  EXCH)*0.95000+LYP    CORR

 FINITE TEMPERATURE DFT CALCULATION 
 TEMPERATURE      (T)    1.000000000000E-13 HARTREE 
 ENERGY           (E)   -3.084465626952E+04
 FREE ENERGY      (F)   -3.084465626952E+04
 ELECTRON ENTROPY (S)    0.000000000000E+00
 (E(T)+F(T))/2    (E0)  -3.084465626952E+04


 TOTAL ENERGY(DFT)(AU)( 70) -3.0844656269520E+04 DE-1.8E-07 tester 1.1E-09
 TTTTTTTTTTTTTTTTTTTTTTTTTTTTTT EDFT        TELAPSE    14581.09 TCPU    14183.63
 EIGENVECTORS IN FORTRAN UNIT  8
 TTTTTTTTTTTTTTTTTTTTTTTTTTTTTT END         TELAPSE    14626.68 TCPU    14229.01
 EEEEEEEEEE TERMINATION  DATE 19 12 2014 TIME 16:43:31.1
NODE    0 CPU TIME =     14229.005
    TOTAL CPU TIME =   2711283.265
